/*--------------------------------*- C++ -*----------------------------------*\
  =========                 |
  \\      /  F ield         | OpenFOAM: The Open Source CFD Toolbox
   \\    /   O peration     | Website:  https://openfoam.org
    \\  /    A nd           | Version:  6
     \\/     M anipulation  |
\*---------------------------------------------------------------------------*/
FoamFile
{
    version     2.0;
    format      ascii;
    class       scalarField;
    location    "0.1/lagrangian/sprayCloud";
    object      age;
}
// * * * * * * * * * * * * * * * * * * * * * * * * * * * * * * * * * * * * * //


572
(
0.00498725
0.00454165
0.00455558
0.00437168
0.00424858
0.00408105
0.00410913
0.00406965
0.00400853
0.00397329
0.00390374
0.0040768
0.00395841
0.0039573
0.00429424
0.00392328
0.00389808
0.00400169
0.00381404
0.00424509
0.00378743
0.00374277
0.0036685
0.0036636
0.00380798
0.00365257
0.00400697
0.0036458
0.0036315
0.00389704
0.00354362
0.00382284
0.00367448
0.0035316
0.00354028
0.00362416
0.0035145
0.00356039
0.00351905
0.00350306
0.00349656
0.00343738
0.0034209
0.00347161
0.00335973
0.00335917
0.00399459
0.00343209
0.00356627
0.00331838
0.00369348
0.00327746
0.00345901
0.00335334
0.00328342
0.00327037
0.00334838
0.00324724
0.00326436
0.00347564
0.00320561
0.0033335
0.0032411
0.00314253
0.00318992
0.00311031
0.00314704
0.00319998
0.00306087
0.00323606
0.00309436
0.0033939
0.00302697
0.00347095
0.00313089
0.00296399
0.00303887
0.00296329
0.00292333
0.00282967
0.0028672
0.00279296
0.00314761
0.00288887
0.00276991
0.00275747
0.00298497
0.00287644
0.00279674
0.00277507
0.00272875
0.00274694
0.00293221
0.00286291
0.00283058
0.00268457
0.0026793
0.00281319
0.00270275
0.00262545
0.00261923
0.00266129
0.00262783
0.00297357
0.00265078
0.00255993
0.00251141
0.00263854
0.00255473
0.0024964
0.00250596
0.00248958
0.00275051
0.00261201
0.00258439
0.0024758
0.00248415
0.00276246
0.00256512
0.002673
0.00234908
0.00285273
0.00251776
0.00254466
0.0024217
0.00937039
0.00862951
0.00888276
0.00811851
0.00802841
0.00770843
0.00749215
0.00768652
0.0078157
0.00770107
0.00745123
0.00703693
0.0070411
0.00685041
0.00686634
0.00673616
0.00783655
0.00669907
0.00817461
0.00663422
0.0070827
0.00645661
0.00653647
0.00661897
0.00641611
0.00638435
0.00611276
0.00722444
0.00597675
0.0073913
0.00689202
0.00594252
0.00637044
0.00688479
0.00633718
0.00562784
0.00567035
0.00570617
0.00583583
0.00558633
0.00554534
0.00747886
0.00557267
0.00581584
0.00552828
0.00552331
0.00541093
0.00537932
0.00538523
0.00586003
0.00554022
0.00585515
0.00523084
0.00540059
0.00548445
0.00764219
0.00509528
0.00679147
0.00511116
0.00509823
0.00531091
0.00510334
0.00536057
0.00501781
0.00527614
0.00522818
0.00519262
0.00494544
0.00642855
0.00511893
0.00523974
0.00501257
0.0047711
0.00478849
0.00485603
0.00493034
0.00471218
0.00499726
0.00472375
0.00540566
0.00495707
0.00484727
0.00468006
0.0045861
0.00459633
0.00464348
0.00450423
0.00460059
0.00455252
0.00451034
0.00440761
0.00448431
0.0044671
0.00432058
0.00469408
0.00431116
0.00436155
0.00498936
0.00426381
0.00427183
0.00444703
0.00435291
0.00448925
0.00417165
0.00879781
0.00311115
0.00293596
0.00287834
0.00283467
0.00276588
0.00271901
0.00245283
0.0024319
0.00240969
0.00244919
0.00242641
0.00236347
0.0023912
0.00244539
0.00241649
0.00233196
0.00232014
0.0023965
0.00230115
0.00245189
0.00238904
0.00225876
0.00233096
0.00227221
0.0022068
0.00221696
0.00221216
0.00215684
0.00212073
0.00211458
0.00210489
0.00210871
0.00208593
0.0021229
0.00211077
0.0020671
0.0020431
0.00219935
0.0020788
0.0021413
0.00200254
0.00206342
0.00203237
0.00201179
0.00199301
0.00202471
0.00211664
0.00195475
0.00196552
0.00193716
0.00190339
0.00190065
0.00188214
0.00191642
0.00194125
0.00184275
0.00192337
0.00185704
0.00194917
0.00183874
0.00182019
0.00180247
0.00185185
0.0017736
0.00180571
0.00176005
0.00179677
0.00175142
0.00174225
0.00195894
0.00172088
0.00176626
0.00172151
0.00189662
0.00169879
0.00170332
0.00168753
0.00182536
0.00167007
0.00170947
0.00166257
0.00163871
0.00165541
0.00162418
0.00161426
0.00172516
0.0016104
0.00160459
0.00168289
0.0015747
0.00156784
0.00154574
0.00150856
0.00167546
0.00153339
0.00148075
0.00150972
0.00150292
0.00148307
0.00145448
0.00144471
0.00146637
0.00141193
0.00140501
0.00151368
0.00148904
0.00149238
0.00138692
0.00139706
0.00147021
0.00135911
0.00134402
0.00155387
0.00143605
0.00133746
0.0012796
0.00133452
0.0012605
0.00132905
0.00127335
0.00124669
0.00141702
0.0012347
0.00136656
0.00132661
0.00130407
0.00123068
0.0013227
0.00131358
0.00116009
0.00116872
0.00119432
0.00118326
0.00129773
0.00120264
0.00125493
0.00119143
0.0011778
0.00110224
0.00113051
0.00114517
0.0012213
0.00120937
0.00112283
0.00104718
0.0010264
0.00103118
0.00102224
0.00110303
0.00108266
0.0010726
0.00100302
0.00101701
0.00109751
0.000994675
0.0012679
0.00118644
0.00107588
0.00105695
0.00105495
0.00104337
0.00100949
0.0010069
0.000999794
0.000976603
0.000958558
0.000943032
0.00093433
0.000930945
0.000925772
0.000916287
0.000907865
0.000904373
0.000898961
0.000891559
0.000883765
0.000876536
0.000868923
0.000864533
0.000858853
0.000851585
0.000836904
0.000832691
0.000827108
0.000821723
0.000814549
0.000807428
0.000799066
0.000795809
0.000789202
0.000786639
0.000782425
0.000775913
0.000773032
0.000768719
0.000759299
0.000755577
0.00074975
0.000745818
0.000744398
0.000740547
0.000730574
0.000729802
0.000724346
0.000712562
0.000711454
0.000706171
0.000704202
0.000699075
0.000697168
0.000691013
0.000684456
0.000660765
0.000655656
0.000654754
0.000649044
0.000647051
0.000639806
0.000633954
0.000629536
0.000618552
0.000615375
0.000610316
0.000607046
0.000598552
0.000594872
0.000591039
0.000582177
0.000577305
0.000573258
0.000572477
0.000565601
0.000555164
0.000546639
0.000540121
0.000537052
0.000532365
0.000525141
0.000517829
0.000514747
0.00051011
0.000506322
0.000505504
0.000500472
0.000494514
0.000481929
0.00047917
0.000475057
0.000471598
0.000471009
0.0004571
0.0004502
0.000447622
0.00044369
0.000440551
0.000435101
0.000431933
0.000426653
0.000423515
0.000417783
0.000415409
0.000411665
0.000405137
0.000400061
0.000393378
0.000390025
0.000384843
0.000380889
0.000374211
0.000368208
0.000363396
0.000357634
0.000352361
0.000346436
0.000340908
0.000338604
0.000333421
0.000331029
0.000323937
0.000318938
0.000313366
0.000308846
0.000308009
0.000302988
0.000301983
0.000296459
0.000294258
0.000285851
0.000280612
0.000276134
0.000274641
0.000269268
0.000263451
0.000257962
0.000255195
0.000249169
0.000244118
0.000243066
0.000235946
0.000230238
0.000227844
0.000220724
0.000215384
0.000211917
0.000207842
0.000207142
0.000200226
0.000195108
0.000190411
0.000184977
0.000178126
0.000169562
0.000164975
0.000159083
0.000147098
0.000137419
0.000132059
0.000127318
0.000123781
0.000118554
0.000111522
0.000108424
0.000102671
0.000100015
9.37156e-05
8.73183e-05
8.60342e-05
8.2028e-05
7.72009e-05
6.97669e-05
6.83135e-05
6.37967e-05
5.90035e-05
5.29996e-05
4.6699e-05
3.89158e-05
3.11327e-05
2.49061e-05
1.93714e-05
1.15306e-05
5.76531e-06
4.32398e-06
)


// ************************************************************************* //
