/*--------------------------------*- C++ -*----------------------------------*\
  =========                 |
  \\      /  F ield         | OpenFOAM: The Open Source CFD Toolbox
   \\    /   O peration     | Website:  https://openfoam.org
    \\  /    A nd           | Version:  6
     \\/     M anipulation  |
\*---------------------------------------------------------------------------*/
FoamFile
{
    version     2.0;
    format      ascii;
    class       scalarField;
    location    "0.1/lagrangian/sprayCloud";
    object      Cp;
}
// * * * * * * * * * * * * * * * * * * * * * * * * * * * * * * * * * * * * * //


572
(
4758.87
4758.85
4758.6
4758.88
4758.53
4759.18
4758.82
4758.4
4759.16
4758.61
4758.98
4758.79
4758.69
4758.75
4758.72
4758.85
4758.81
4758.82
4758.38
4756.88
4758.43
4758.4
4758.68
4759.08
4758.23
4758.65
4758.56
4759.09
4758.96
4758.43
4759.09
4758.44
4758.44
4758.72
4758.81
4758.68
4758.81
4758.71
4758.71
4758.46
4758
4758.71
4758.94
4758.44
4758.99
4759.43
4758.35
4758.88
4758.5
4758.49
4758.45
4759.19
4758.7
4758.62
4758.47
4758.85
4758.79
4758.74
4758.87
4758.68
4758.47
4758.25
4767.04
4758.81
4759.6
4762.08
4759.45
4758.34
4758.6
4758.34
4758.19
4758.19
4758.62
4758.59
4758.54
4758.19
4758.61
4758.72
4759.23
4758.16
4758.9
4756.95
4758.22
4758.91
4759.28
4759.23
4758.26
4758.09
4759.03
4758.08
4759
4758.08
4758.47
4758.51
4758.29
4758.56
4758.38
4758.51
4758.67
4759.24
4759.99
4758.48
4758.48
4758.64
4758.64
4759.05
4759.09
4758.66
4759.17
4758.84
4759.17
4759.12
4758.31
4758.31
4758.35
4758.4
4758.32
4757.62
4757.66
4757.66
4755.5
4757.62
4757.73
4760.34
4760.71
4761.05
4761.06
4760.97
4760.87
4760.86
4760.97
4760.97
4760.73
4760.46
4760.42
4760.26
4760.52
4760.51
4760.29
4760.23
4760.21
4760.65
4760.53
4760.29
4760.67
4760.42
4760.33
4760.33
4760.42
4760.33
4760.12
4760.34
4759.72
4760.33
4759.85
4760.73
4762.14
4760.13
4759.8
4759.82
4760.13
4757.27
4760.07
4759.86
4758.82
4760.33
4759.57
4759.82
4759.84
4760.12
4754.82
4760.06
4758.82
4760.16
4759.88
4759.83
4759.81
4760.02
4760.74
4759.96
4759.21
4760.35
4759.41
4759.97
4759.98
4759.94
4759.71
4759.03
4759.63
4759.71
4759.08
4759.74
4759.99
4759.21
4759.67
4759.21
4759.58
4759.76
4759.84
4759.72
4759.64
4759.19
4759.01
4758.65
4759.44
4759.03
4759.32
4759.15
4758.66
4758.69
4758.75
4759.15
4759.01
4759.45
4759.15
4759.84
4759.21
4759.04
4758.98
4758.57
4759.17
4758.94
4759.34
4759.51
4759
4760.38
4760.08
4760.08
4759.81
4760.32
4758.37
4757.96
4758.34
4757.84
4758.34
4757.89
4757.62
4757.62
4757.93
4758.01
4757.58
4758.5
4757.99
4757.72
4758.85
4759.69
4757.59
4757.56
4749.31
4757.02
4757.62
4758.27
4757.41
4758
4758.41
4757.69
4759.6
4757.93
4760.09
4760.09
4760.14
4759.6
4759.89
4758.92
4758.55
4756.86
4759.94
4757.1
4758.85
4757.74
4760.09
4758.07
4757.99
4758.33
4759.94
4758.39
4757.24
4758.68
4758.33
4758.64
4758.64
4758.11
4760.21
4757.96
4758.78
4758.73
4757.71
4757.45
4757.27
4757.66
4758.37
4758.73
4758.78
4758.37
4758.63
4758.94
4757.71
4757.45
4758.48
4755.28
4759.27
4759.67
4758.99
4761.74
4758.13
4758.52
4758.33
4761.74
4757.91
4756.31
4758.52
4757.79
4756.13
4758.52
4757.65
4757.91
4757.23
4757.23
4757.93
4757.23
4758.86
4759.27
4761.01
4758.53
4758.31
4760.54
4758.73
4765.21
4758.73
4759.49
4760.21
4765.21
4759.48
4761.24
4758.92
4759.09
4758.92
4758.44
4759.3
4758.67
4759.95
4760.36
4758.72
4759.02
4758.76
4757.02
4760.77
4758.45
4759.3
4757
4755.16
4759.15
4759.21
4758.85
4758.98
4759.37
4760.68
4758.85
4758.98
4759.51
4759.94
4760.48
4760.39
4757.66
4755.84
4755.99
4757.42
4757.42
4760.8
4758.5
4761.44
4758.62
4759.06
4761.61
4756.79
4757.32
4760.17
4758.05
4761.02
4759.88
4761.02
4758.48
4759.99
4760.92
4759.1
4758.6
4759.31
4759.66
4759.19
4757.91
4757.71
4758.71
4758.89
4759.96
4757.34
4761.18
4757.53
4759.47
4759
4758.77
4764.6
4763.93
4759.53
4760.63
4762.98
4759.64
4762.42
4760.18
4760.53
4759.68
4760.94
4768.5
4759.73
4758.7
4758.7
4761.31
4759.04
4762.56
4759.16
4759.04
4762.45
4761.13
4762.98
4762.35
4760.48
4760.92
4761.66
4761.27
4760.77
4761.13
4756.41
4756.53
4762.1
4760.54
4760.14
4371.66
4764.84
4762.46
4761.99
3777.43
4764.84
4762.5
4237.91
4757.21
3743.03
4762.68
3892.72
4207.31
4762.68
4759.23
4760.77
4761.43
4757.82
4759.23
4759.93
3719.99
3714.98
4836.92
4755.82
4757.09
3879.93
4756.38
4757.09
4749.77
4751.97
4758.72
4730.91
4752.61
4758.36
4758.36
4746.9
4748.27
4748.27
4762.85
3759.64
3707.29
4761.7
3729.66
3717.19
3633.13
4762.9
3712.73
4762.39
4015.42
4761.71
3635.77
4761.93
3734.46
3658.63
3804.65
3655.78
4763.12
4764.55
3750.94
3689.05
3675.24
3681.21
3707.14
3665.51
3694.47
3703.76
3720.91
4587.92
4765.3
3719.47
4763.77
4763.86
4763.77
3724.58
3741.84
3698.26
4068.42
3669.46
3754.7
3696.18
3758.14
3779.49
3909.79
3695.17
3777.18
3821.5
3721.68
3697.9
3672.61
3728
3715.73
3707.08
4121.94
4453.2
3728.74
3677.85
4761.25
3734.51
3706.69
4761.8
3707.52
3716.21
4761.25
3660.01
3649
4761.32
3881.77
4320.74
4763.77
4075.8
3707.88
3629.63
4178.37
3728.13
4742.42
3773.31
4232.15
3727.43
3647.61
4752.65
3790.5
3752.91
4752.65
3689.37
3906.69
3665.86
3727.4
3725.15
3827.53
3703.73
3752.96
3707.75
3727.77
3727.19
3724.31
3741
3733.02
)


// ************************************************************************* //
