/*--------------------------------*- C++ -*----------------------------------*\
  =========                 |
  \\      /  F ield         | OpenFOAM: The Open Source CFD Toolbox
   \\    /   O peration     | Website:  https://openfoam.org
    \\  /    A nd           | Version:  6
     \\/     M anipulation  |
\*---------------------------------------------------------------------------*/
FoamFile
{
    version     2.0;
    format      ascii;
    class       scalarField;
    location    "0.1/lagrangian/sprayCloud";
    object      d;
}
// * * * * * * * * * * * * * * * * * * * * * * * * * * * * * * * * * * * * * //


572
(
1.16656e-05
2.44488e-05
1.66076e-05
2.06709e-05
1.5948e-05
3.07281e-05
1.67074e-05
1.55198e-05
4.19457e-05
3.09008e-05
1.44279e-05
4.28098e-05
3.28977e-05
2.42746e-05
7.6352e-06
1.29788e-05
2.94103e-06
5.68346e-05
2.05345e-05
1.50156e-05
5.30898e-06
2.55212e-05
5.41615e-05
2.87023e-05
1.67291e-05
4.68582e-05
2.03024e-05
3.36912e-05
6.59413e-05
2.12879e-05
4.44431e-05
1.95489e-05
2.09104e-05
5.41492e-05
2.7395e-05
3.49673e-05
4.44877e-05
1.38219e-05
1.4739e-05
4.46489e-06
1.45543e-05
3.00038e-05
1.56622e-05
2.20671e-05
5.81204e-05
1.17429e-05
6.7248e-06
8.31064e-06
4.22552e-05
8.41497e-06
1.2722e-05
7.95684e-05
1.39925e-05
2.0714e-05
3.36039e-05
1.23529e-05
1.92915e-05
1.31307e-05
1.4008e-05
1.53995e-05
4.92682e-05
9.91755e-06
2.3313e-05
1.30435e-05
3.4619e-05
2.12113e-05
3.63924e-05
2.48349e-05
2.9914e-05
2.44504e-05
8.97137e-06
2.03404e-05
1.5046e-05
2.75076e-06
1.56468e-05
3.04998e-05
1.97353e-05
2.09017e-05
1.41773e-05
1.23306e-05
2.95936e-05
1.56332e-05
1.2793e-05
4.07646e-05
4.31662e-05
2.85098e-05
5.96917e-06
3.04359e-05
4.91333e-05
1.22119e-05
5.32008e-05
4.88943e-05
1.60387e-05
2.10278e-06
3.41271e-05
1.04651e-05
2.89574e-05
3.59003e-05
1.46492e-05
2.27643e-05
2.57527e-05
2.50783e-05
3.8567e-05
1.37641e-05
1.26704e-05
1.93551e-05
2.73571e-05
9.83706e-06
1.44289e-06
7.0427e-05
1.55296e-05
2.35974e-05
1.13319e-05
2.29551e-05
2.01504e-05
2.83969e-05
4.35646e-05
7.62567e-06
2.63313e-05
2.2103e-05
3.24065e-05
3.98195e-06
5.72836e-05
8.78399e-06
1.80189e-05
7.93502e-06
2.70375e-06
1.52279e-05
1.89272e-05
1.15616e-05
3.35753e-05
5.84531e-05
4.74186e-05
3.75182e-05
1.82137e-05
1.06896e-05
1.72962e-05
2.6201e-05
1.04553e-05
8.28001e-06
1.92535e-05
2.11743e-05
2.78377e-05
1.12087e-05
3.56062e-05
3.1315e-05
2.99198e-05
4.11894e-05
3.35652e-05
1.83608e-05
2.28701e-05
2.41377e-05
1.46318e-05
2.35609e-05
1.34171e-05
3.15774e-05
1.38829e-06
1.53905e-05
2.3367e-05
1.85525e-05
3.78973e-06
2.36085e-05
1.40739e-05
1.20894e-05
3.11049e-05
6.5816e-05
1.22119e-05
5.26096e-06
1.5433e-05
2.79022e-05
4.67545e-05
1.68907e-05
4.05394e-05
2.03783e-05
1.92943e-05
8.99845e-06
1.80208e-05
1.11577e-05
6.3188e-05
1.33326e-05
7.74735e-06
1.97749e-05
2.24558e-05
2.58397e-05
2.77535e-05
4.3857e-05
1.22832e-05
9.81882e-06
2.04043e-05
3.05114e-05
9.86562e-06
3.05902e-05
5.22151e-05
1.88388e-05
2.14663e-05
1.81012e-05
2.51569e-05
4.96611e-05
8.01892e-05
3.21393e-05
3.74531e-05
3.1136e-05
3.05678e-05
2.54828e-05
3.46237e-05
5.18476e-05
7.58542e-06
1.87124e-05
3.51642e-05
3.58021e-05
3.58275e-05
4.19814e-05
1.06822e-05
2.09751e-05
3.74696e-05
3.10865e-05
2.47417e-05
2.25446e-05
4.43754e-05
3.83948e-06
4.09174e-05
6.49053e-05
3.20955e-05
4.88064e-05
3.28416e-05
6.67531e-06
4.13335e-05
2.36315e-05
1.20479e-05
2.74912e-05
1.55926e-05
1.03726e-05
1.07987e-05
3.82063e-06
1.81112e-05
7.9302e-06
1.30733e-05
1.47e-05
1.62622e-05
1.22509e-05
2.62642e-05
2.41771e-05
9.02056e-06
3.33738e-06
1.3598e-05
6.87799e-06
1.83304e-05
2.01344e-05
1.08853e-05
2.22353e-06
1.3625e-05
1.19059e-05
1.98651e-05
2.40375e-05
1.15631e-05
3.44099e-05
8.97449e-06
1.35027e-05
2.12996e-05
1.9876e-05
1.58566e-05
4.18544e-05
1.8929e-05
3.92243e-05
7.69685e-06
1.46077e-05
1.35913e-05
1.58063e-05
3.64089e-05
2.75988e-05
1.37382e-05
3.32813e-05
6.37962e-06
1.02001e-05
8.5365e-06
4.60879e-06
1.49314e-05
1.63121e-05
2.09007e-05
3.02015e-05
5.20147e-05
5.66569e-06
2.96011e-05
6.32259e-06
2.08685e-05
3.97587e-05
6.67359e-06
5.24589e-06
1.23905e-05
5.03162e-06
3.8663e-06
7.42417e-06
3.95562e-05
4.02024e-05
5.18704e-06
3.5347e-05
1.51271e-05
4.64328e-05
1.19042e-05
8.18652e-06
4.73414e-05
2.30253e-06
3.92321e-05
1.14786e-05
3.91171e-05
1.42663e-05
2.65715e-05
1.32642e-05
1.8989e-05
1.05816e-05
2.40064e-05
2.57205e-05
3.26724e-05
5.25937e-05
3.76052e-05
1.01915e-05
1.15265e-05
9.02913e-06
3.58169e-05
1.49507e-05
1.65824e-05
4.59205e-05
3.44623e-05
1.29789e-05
5.34739e-05
5.02924e-05
1.16447e-05
9.99409e-06
2.48755e-05
3.98571e-05
2.65395e-05
3.67433e-05
1.02768e-05
2.91997e-05
3.47432e-05
1.09842e-05
3.64871e-05
4.07981e-05
7.64285e-05
1.72453e-05
2.0709e-05
1.9693e-05
9.30857e-06
1.912e-05
2.65462e-05
3.43969e-05
1.32215e-05
4.30743e-05
1.7748e-05
3.7197e-05
1.12424e-05
5.82902e-06
3.02752e-05
1.93463e-05
2.08315e-05
2.4727e-05
8.65539e-06
2.56181e-05
1.70198e-05
3.40727e-05
1.68649e-05
3.55882e-05
4.5291e-05
1.80076e-05
3.08783e-05
1.36029e-05
1.65758e-05
2.26585e-05
1.41534e-05
1.19741e-05
9.39052e-06
1.61707e-05
1.38696e-06
1.25888e-05
1.88294e-05
8.21662e-06
2.01137e-05
7.70008e-06
1.34907e-05
8.975e-06
3.42459e-05
2.208e-05
3.41709e-05
3.20713e-05
5.53907e-05
8.8331e-06
5.37334e-06
1.102e-05
4.6514e-06
6.31479e-06
3.55474e-05
1.47171e-05
1.52993e-05
4.04452e-05
4.74208e-05
1.82476e-05
6.72055e-05
2.81638e-05
2.3185e-05
4.79158e-06
2.09474e-05
1.37422e-05
1.60197e-05
3.72389e-05
4.55883e-05
3.19917e-05
3.6793e-05
2.74748e-05
2.00193e-05
6.18354e-06
2.29796e-05
7.97954e-06
1.05176e-05
1.68447e-05
2.58435e-05
2.56048e-05
5.14708e-05
9.66098e-06
3.0805e-05
2.26283e-05
2.4642e-05
1.34335e-05
1.59623e-05
5.37869e-06
1.36281e-05
5.3438e-05
5.55152e-06
3.69948e-05
2.92703e-05
2.58102e-05
8.79546e-06
2.09382e-05
9.33072e-06
2.83792e-05
1.85445e-05
5.04366e-05
1.41271e-05
1.3175e-05
2.86148e-05
4.35842e-05
2.28849e-05
4.61925e-05
1.3888e-05
1.77936e-05
4.14069e-05
2.54968e-05
1.13295e-05
2.04179e-05
1.85454e-05
9.56416e-06
2.48542e-06
4.09747e-05
1.97356e-05
4.61231e-06
2.31077e-05
4.29983e-05
3.82035e-05
4.5584e-06
2.34547e-05
2.94835e-05
1.4209e-05
4.02795e-05
3.1862e-05
5.34753e-06
6.40667e-06
1.10075e-05
8.80343e-06
2.79575e-05
6.26763e-06
3.33648e-05
1.19386e-05
3.3287e-05
1.40859e-05
1.31266e-05
7.22394e-05
2.90871e-05
9.50956e-06
9.57991e-05
5.91443e-05
1.50137e-05
2.38238e-05
1.34193e-05
3.33937e-05
9.29357e-06
3.36975e-05
1.71285e-05
4.61031e-05
1.78286e-05
1.88012e-05
1.12345e-05
1.99716e-05
2.36979e-05
1.31922e-05
4.5444e-05
2.87677e-05
2.44194e-05
2.58482e-05
3.44465e-05
7.14494e-06
2.2333e-05
3.88585e-05
6.52435e-05
2.8255e-05
1.26151e-05
5.41032e-05
1.5733e-05
3.20424e-05
2.15621e-05
3.93985e-05
9.46608e-06
3.01223e-05
4.51123e-05
2.15677e-05
1.74734e-05
3.02997e-05
4.78193e-05
3.0319e-05
3.30763e-05
1.98095e-05
2.44187e-05
2.27976e-05
3.87115e-05
2.99469e-05
2.02535e-05
6.92169e-06
3.51607e-05
3.64048e-05
4.8519e-05
2.90685e-05
3.25661e-05
8.58082e-06
4.26715e-06
4.51738e-05
3.31934e-05
1.9465e-05
3.1068e-05
2.10772e-05
1.57136e-05
1.34917e-05
1.16292e-05
8.97477e-06
9.77293e-06
3.15869e-05
9.17154e-06
3.75718e-05
1.90806e-05
9.50165e-06
9.87408e-06
2.05423e-05
1.68937e-05
1.5278e-05
1.33639e-05
5.14443e-05
8.78539e-06
8.60143e-06
1.9203e-05
1.23568e-05
5.79127e-06
1.47944e-05
1.91409e-05
7.91709e-06
3.92031e-05
3.20747e-05
3.1581e-05
1.44284e-05
2.62796e-05
9.16077e-06
2.07452e-05
1.6585e-05
1.44568e-05
1.47859e-05
2.16436e-05
)


// ************************************************************************* //
