/*--------------------------------*- C++ -*----------------------------------*\
  =========                 |
  \\      /  F ield         | OpenFOAM: The Open Source CFD Toolbox
   \\    /   O peration     | Website:  https://openfoam.org
    \\  /    A nd           | Version:  6
     \\/     M anipulation  |
\*---------------------------------------------------------------------------*/
FoamFile
{
    version     2.0;
    format      ascii;
    class       scalarField;
    location    "0.1/lagrangian/sprayCloud";
    object      d0;
}
// * * * * * * * * * * * * * * * * * * * * * * * * * * * * * * * * * * * * * //


572
(
4.09096e-05
4.7653e-05
4.24325e-05
4.16361e-05
3.79669e-05
4.64062e-05
3.90298e-05
3.76178e-05
5.4448e-05
4.65301e-05
3.26127e-05
5.82514e-05
4.83243e-05
4.20651e-05
3.70857e-05
3.45307e-05
3.0189e-05
6.97695e-05
3.58209e-05
4.04832e-05
2.72781e-05
3.8511e-05
6.18106e-05
4.02655e-05
3.66226e-05
5.51285e-05
4.2472e-05
4.48815e-05
7.22412e-05
4.30765e-05
5.35539e-05
4.14246e-05
3.99197e-05
6.18676e-05
3.9323e-05
4.95486e-05
5.32115e-05
3.07358e-05
3.13618e-05
2.6647e-05
3.10507e-05
4.18552e-05
3.1812e-05
3.93337e-05
6.51779e-05
2.92888e-05
3.57107e-05
2.88631e-05
5.69886e-05
2.82786e-05
3.58037e-05
8.43053e-05
3.42856e-05
3.5125e-05
4.44241e-05
3.02415e-05
3.48003e-05
3.05789e-05
3.02634e-05
3.61886e-05
5.69928e-05
2.94278e-05
3.68085e-05
3.10618e-05
4.53405e-05
3.50198e-05
4.64862e-05
3.8204e-05
4.16829e-05
3.81134e-05
2.78403e-05
3.92043e-05
3.10211e-05
3.04524e-05
3.21748e-05
4.17481e-05
3.4758e-05
3.46121e-05
3.05121e-05
2.84674e-05
4.04229e-05
2.96844e-05
3.09879e-05
4.95682e-05
5.01771e-05
3.78977e-05
2.73186e-05
4.12656e-05
5.63901e-05
2.71224e-05
5.85283e-05
5.58793e-05
3.1649e-05
2.4613e-05
4.38618e-05
2.53115e-05
3.80437e-05
4.55987e-05
2.76718e-05
3.21777e-05
3.43172e-05
3.58064e-05
4.66145e-05
3.10465e-05
2.68693e-05
2.93463e-05
3.5613e-05
2.50345e-05
2.15212e-05
7.36356e-05
2.65071e-05
3.22759e-05
2.79045e-05
3.45877e-05
3.19897e-05
3.61559e-05
5.00839e-05
2.61806e-05
3.73213e-05
3.46977e-05
3.73048e-05
2.56381e-05
6.48172e-05
2.42663e-05
2.86635e-05
5.82865e-05
5.13177e-05
5.73311e-05
5.36052e-05
4.99475e-05
6.11648e-05
8.24299e-05
7.43586e-05
6.7087e-05
5.41345e-05
4.96927e-05
4.98777e-05
5.57383e-05
4.48248e-05
4.34877e-05
4.90938e-05
5.76801e-05
5.30795e-05
5.50849e-05
5.8248e-05
5.87354e-05
5.54536e-05
6.53775e-05
5.87621e-05
4.70006e-05
5.06459e-05
4.91144e-05
5.32408e-05
4.82816e-05
5.06383e-05
5.99102e-05
3.94013e-05
4.80877e-05
5.35388e-05
4.80011e-05
3.69098e-05
4.6898e-05
4.26995e-05
4.26917e-05
5.22592e-05
8.00163e-05
5.31661e-05
3.99645e-05
4.4651e-05
5.03286e-05
6.42947e-05
4.35459e-05
5.88135e-05
4.52088e-05
4.70623e-05
3.97677e-05
4.62964e-05
4.01391e-05
7.73472e-05
4.17513e-05
5.23062e-05
4.18141e-05
5.66561e-05
4.71709e-05
4.7816e-05
6.17479e-05
3.95106e-05
3.87281e-05
4.25071e-05
5.19051e-05
3.872e-05
5.12011e-05
6.5944e-05
5.20444e-05
4.54519e-05
4.36856e-05
4.644e-05
6.39769e-05
8.93012e-05
5.03133e-05
5.47709e-05
4.96822e-05
5.06045e-05
4.56759e-05
5.73248e-05
6.70006e-05
3.51573e-05
4.14491e-05
5.25934e-05
5.31981e-05
5.33604e-05
5.67444e-05
3.67446e-05
4.17075e-05
5.2979e-05
4.78459e-05
4.3288e-05
4.20091e-05
5.7533e-05
3.47512e-05
5.44073e-05
7.44349e-05
5.4366e-05
6.02854e-05
4.81472e-05
3.34633e-05
5.59093e-05
4.34859e-05
3.47069e-05
6.5036e-05
3.57938e-05
2.97625e-05
2.90822e-05
2.53805e-05
3.23958e-05
2.64712e-05
2.57654e-05
2.69182e-05
2.78912e-05
2.83325e-05
3.79753e-05
3.12323e-05
2.3882e-05
2.56163e-05
2.93203e-05
2.21859e-05
2.83101e-05
3.30351e-05
2.34674e-05
2.58856e-05
2.95406e-05
2.55251e-05
3.2911e-05
3.4588e-05
2.1975e-05
4.23546e-05
2.27457e-05
2.54655e-05
2.93426e-05
2.82302e-05
2.48343e-05
4.77045e-05
2.79788e-05
4.69009e-05
2.17855e-05
2.55849e-05
2.3792e-05
3.11041e-05
4.39349e-05
3.89972e-05
2.35722e-05
4.16525e-05
2.18129e-05
2.3129e-05
2.03676e-05
2.12134e-05
2.97407e-05
2.51655e-05
3.11616e-05
3.70071e-05
5.66382e-05
1.82256e-05
3.30744e-05
2.15918e-05
3.10502e-05
4.39327e-05
2.20599e-05
1.84614e-05
2.63938e-05
1.77629e-05
1.66908e-05
1.8824e-05
4.6848e-05
4.42275e-05
1.97725e-05
3.8101e-05
2.54951e-05
5.05105e-05
2.04991e-05
2.48545e-05
4.75271e-05
1.78091e-05
4.09545e-05
2.63319e-05
4.35053e-05
2.38058e-05
3.25853e-05
2.76227e-05
2.60785e-05
2.19767e-05
3.04189e-05
3.11812e-05
3.73949e-05
5.52197e-05
3.93125e-05
2.25347e-05
2.12219e-05
1.98118e-05
4.30436e-05
2.38364e-05
2.41922e-05
4.90598e-05
3.60282e-05
2.63483e-05
5.67828e-05
5.25954e-05
2.09322e-05
2.00448e-05
3.05916e-05
4.35108e-05
3.14865e-05
4.04728e-05
1.81135e-05
3.38489e-05
4.09507e-05
2.02269e-05
4.23912e-05
4.38358e-05
7.80639e-05
2.71162e-05
2.62528e-05
2.49913e-05
2.24057e-05
2.80861e-05
3.16396e-05
3.71114e-05
2.03407e-05
4.46328e-05
2.40284e-05
3.98734e-05
1.85764e-05
1.91062e-05
3.36181e-05
2.80882e-05
2.89269e-05
3.16537e-05
1.68425e-05
3.3507e-05
2.61426e-05
3.78795e-05
2.29226e-05
3.89736e-05
4.77012e-05
2.76905e-05
3.65179e-05
2.23274e-05
2.28618e-05
2.75468e-05
2.11245e-05
1.97359e-05
1.82528e-05
2.48374e-05
1.49026e-05
2.03697e-05
2.42468e-05
1.67085e-05
2.55021e-05
1.67621e-05
2.05487e-05
1.80292e-05
3.77108e-05
2.64159e-05
3.69644e-05
3.58706e-05
5.63455e-05
2.1384e-05
1.8918e-05
1.86908e-05
1.55598e-05
1.67467e-05
3.89736e-05
2.08806e-05
2.20389e-05
4.27372e-05
4.91747e-05
2.28112e-05
6.71778e-05
3.08111e-05
2.66398e-05
1.36014e-05
2.43665e-05
1.87484e-05
2.04976e-05
3.8496e-05
4.6352e-05
3.42873e-05
3.74125e-05
2.96587e-05
2.28602e-05
1.37644e-05
2.45902e-05
1.41978e-05
1.59399e-05
2.00211e-05
2.83364e-05
2.82378e-05
5.13657e-05
1.66467e-05
3.11997e-05
2.47513e-05
2.63974e-05
1.75929e-05
1.87985e-05
1.43615e-05
1.9443e-05
5.30216e-05
1.05717e-05
3.85215e-05
3.02423e-05
2.8091e-05
1.01781e-05
2.51312e-05
1.53236e-05
3.14682e-05
1.98268e-05
5.01065e-05
1.951e-05
1.5613e-05
3.10792e-05
4.37422e-05
2.66311e-05
4.59428e-05
1.4252e-05
1.79346e-05
4.15876e-05
2.83513e-05
1.16894e-05
2.06506e-05
2.23577e-05
1.56173e-05
1.19817e-05
4.21964e-05
2.3372e-05
1.21892e-05
2.63502e-05
4.31781e-05
3.83846e-05
9.16903e-06
2.648e-05
3.07895e-05
1.44919e-05
4.05801e-05
3.30357e-05
7.82882e-06
8.99013e-06
1.53752e-05
9.58983e-06
2.88478e-05
1.01791e-05
3.4719e-05
1.26363e-05
3.30752e-05
1.50056e-05
1.67885e-05
7.22848e-05
2.92809e-05
1.15757e-05
9.58954e-05
5.92783e-05
1.52707e-05
2.62904e-05
1.36768e-05
3.50851e-05
9.60537e-06
3.38329e-05
1.73478e-05
4.69145e-05
1.80557e-05
1.90197e-05
1.15151e-05
2.01642e-05
2.44481e-05
1.39692e-05
4.5587e-05
2.89207e-05
2.46051e-05
2.60229e-05
3.45663e-05
7.41463e-06
2.25308e-05
3.90051e-05
6.53419e-05
2.82975e-05
1.57497e-05
5.4231e-05
1.69675e-05
3.31101e-05
2.26679e-05
3.95424e-05
9.73345e-06
3.02497e-05
4.50094e-05
2.17465e-05
1.76037e-05
3.04629e-05
4.79232e-05
3.04662e-05
3.31224e-05
1.99505e-05
2.45756e-05
2.28715e-05
3.88351e-05
3.00932e-05
2.04254e-05
7.12248e-06
3.52891e-05
3.65196e-05
4.8306e-05
2.90139e-05
3.26487e-05
8.76096e-06
5.86684e-06
4.52365e-05
3.33017e-05
1.97686e-05
3.1186e-05
2.12143e-05
1.61801e-05
1.36461e-05
1.17909e-05
9.50022e-06
9.91568e-06
3.13745e-05
1.0492e-05
3.74148e-05
1.9178e-05
9.64119e-06
1.00625e-05
2.0638e-05
1.68835e-05
1.5354e-05
1.33716e-05
5.14911e-05
8.90107e-06
9.05745e-06
1.9246e-05
1.24345e-05
6.49376e-06
1.48758e-05
1.91195e-05
8.02499e-06
3.92392e-05
3.21133e-05
3.15435e-05
1.44812e-05
2.62892e-05
9.20172e-06
2.0765e-05
1.66024e-05
1.44726e-05
1.47922e-05
2.16475e-05
)


// ************************************************************************* //
