/*--------------------------------*- C++ -*----------------------------------*\
  =========                 |
  \\      /  F ield         | OpenFOAM: The Open Source CFD Toolbox
   \\    /   O peration     | Website:  https://openfoam.org
    \\  /    A nd           | Version:  6
     \\/     M anipulation  |
\*---------------------------------------------------------------------------*/
FoamFile
{
    version     2.0;
    format      ascii;
    class       scalarField;
    location    "0.1/lagrangian/sprayCloud";
    object      mass0;
}
// * * * * * * * * * * * * * * * * * * * * * * * * * * * * * * * * * * * * * //


572
(
2.81619e-11
4.45099e-11
3.14255e-11
2.9689e-11
2.25113e-11
4.11069e-11
2.44555e-11
2.18962e-11
6.63947e-11
4.14371e-11
1.42674e-11
8.13028e-11
4.64177e-11
3.06164e-11
2.098e-11
1.69357e-11
1.13171e-11
1.39696e-10
1.89059e-11
2.72906e-11
8.34886e-12
2.34932e-11
9.7135e-11
2.68526e-11
2.02039e-11
6.89153e-11
3.15135e-11
3.71868e-11
1.55075e-10
3.28781e-11
6.31773e-11
2.92389e-11
2.61666e-11
9.74041e-11
2.50107e-11
5.00357e-11
6.19732e-11
1.19432e-11
1.26879e-11
7.7827e-12
1.2314e-11
3.01603e-11
1.32422e-11
2.50313e-11
1.13891e-10
1.03346e-11
1.87319e-11
9.89045e-12
7.6129e-11
9.30169e-12
1.88787e-11
2.46462e-10
1.65776e-11
1.78252e-11
3.60614e-11
1.13761e-11
1.73355e-11
1.17612e-11
1.14009e-11
1.94941e-11
7.61459e-11
1.04824e-11
2.0513e-11
1.23273e-11
3.83395e-11
1.76655e-11
4.132e-11
2.29357e-11
2.97894e-11
2.27729e-11
8.87579e-12
2.4785e-11
1.22789e-11
1.16158e-11
1.37004e-11
2.99292e-11
1.72724e-11
1.70557e-11
1.16843e-11
9.4892e-12
2.71688e-11
1.0759e-11
1.22395e-11
5.00952e-11
5.19642e-11
2.23886e-11
8.38616e-12
2.89035e-11
7.37558e-11
8.20672e-12
8.24678e-11
7.17694e-11
1.30396e-11
6.13309e-12
3.47093e-11
6.67022e-12
2.26483e-11
3.89981e-11
8.71559e-12
1.37042e-11
1.66235e-11
1.88829e-11
4.1663e-11
1.2309e-11
7.97916e-12
1.03956e-11
1.85785e-11
6.45364e-12
4.10001e-12
1.64229e-10
7.66078e-12
1.383e-11
8.9374e-12
1.70197e-11
1.34653e-11
1.94412e-11
5.16751e-11
7.38121e-12
2.13824e-11
1.71825e-11
2.13541e-11
6.93175e-12
1.1201e-10
5.87758e-12
9.68664e-12
8.145e-11
5.55888e-11
7.75099e-11
6.33588e-11
5.12539e-11
9.41222e-11
2.30378e-10
1.69115e-10
1.24195e-10
6.52544e-11
5.04736e-11
5.10394e-11
7.12276e-11
3.70461e-11
3.38289e-11
4.86707e-11
7.8934e-11
6.15131e-11
6.87519e-11
8.12886e-11
8.33465e-11
7.01416e-11
1.1494e-10
8.34602e-11
4.27068e-11
5.34341e-11
4.87318e-11
6.20755e-11
4.62947e-11
5.34101e-11
8.84482e-11
2.51605e-11
4.57391e-11
6.31238e-11
4.54926e-11
2.06829e-11
4.24278e-11
3.20224e-11
3.20049e-11
5.87048e-11
2.10728e-10
6.18147e-11
2.6255e-11
3.66169e-11
5.24363e-11
1.09323e-10
3.39647e-11
8.36793e-11
3.80063e-11
4.28751e-11
2.58689e-11
4.08157e-11
2.66004e-11
1.90336e-10
2.99362e-11
5.88635e-11
3.00714e-11
7.48045e-11
4.31727e-11
4.49684e-11
9.68398e-11
2.53704e-11
2.38928e-11
3.15915e-11
5.75198e-11
2.38778e-11
5.52109e-11
1.17954e-10
5.7984e-11
3.86227e-11
3.42928e-11
4.11969e-11
1.0771e-10
2.92926e-10
5.23884e-11
6.7583e-11
5.04416e-11
5.33034e-11
3.91965e-11
7.74843e-11
1.23715e-10
1.78745e-11
2.92908e-11
5.98385e-11
6.19264e-11
6.24948e-11
7.51547e-11
2.04065e-11
2.98421e-11
6.11642e-11
4.50527e-11
3.33649e-11
3.04942e-11
7.83316e-11
1.72622e-11
6.62459e-11
1.69635e-10
6.60951e-11
9.01205e-11
4.59093e-11
1.54133e-11
7.18851e-11
3.38245e-11
1.71963e-11
1.13148e-10
1.88629e-11
1.08442e-11
1.01174e-11
6.72495e-12
1.39847e-11
7.62974e-12
7.03553e-12
8.02282e-12
8.92461e-12
9.35494e-12
2.25263e-11
1.25314e-11
5.6027e-12
6.91407e-12
1.03679e-11
4.49179e-12
9.33273e-12
1.48291e-11
5.31597e-12
7.13444e-12
1.06034e-11
6.84051e-12
1.46626e-11
1.70201e-11
4.36486e-12
3.12528e-11
4.84047e-12
6.79272e-12
1.03916e-11
9.25394e-12
6.30002e-12
4.46544e-11
9.00897e-12
4.24356e-11
4.25292e-12
6.88872e-12
5.53959e-12
1.23777e-11
3.48831e-11
2.43943e-11
5.38753e-12
2.97241e-11
4.26902e-12
5.08927e-12
3.47542e-12
3.9266e-12
1.08203e-11
6.55549e-12
1.24465e-11
2.0847e-11
7.47334e-11
2.4902e-12
1.4882e-11
4.14048e-12
1.23134e-11
3.4878e-11
4.41566e-12
2.58812e-12
7.563e-12
2.30532e-12
1.91256e-12
2.74362e-12
4.22921e-11
3.55848e-11
3.17957e-12
2.27508e-11
6.81642e-12
5.30067e-11
3.54316e-12
6.31543e-12
4.4158e-11
2.32335e-12
2.82548e-11
7.50985e-12
3.38699e-11
5.54928e-12
1.42315e-11
8.66931e-12
7.29514e-12
4.36593e-12
1.15776e-11
1.24699e-11
2.15092e-11
6.92577e-11
2.49907e-11
4.70699e-12
3.93135e-12
3.19861e-12
3.2803e-11
5.57066e-12
5.82392e-12
4.85696e-11
1.9236e-11
7.52392e-12
7.53073e-11
5.98452e-11
3.77251e-12
3.31276e-12
1.17759e-11
3.38826e-11
1.28399e-11
2.72695e-11
2.44452e-12
1.59522e-11
2.82469e-11
3.40388e-12
3.13339e-11
3.46477e-11
1.95676e-10
8.20116e-12
7.4424e-12
6.42026e-12
4.62661e-12
9.11296e-12
1.30281e-11
2.10236e-11
3.46167e-12
3.6572e-11
5.70642e-12
2.60758e-11
2.63675e-12
2.86884e-12
1.56281e-11
9.115e-12
9.95613e-12
1.30455e-11
1.96521e-12
1.54737e-11
7.34907e-12
2.23563e-11
4.95425e-12
2.43499e-11
4.46451e-11
8.7333e-12
2.0031e-11
4.57828e-12
4.91493e-12
8.5981e-12
3.87745e-12
3.16196e-12
2.50135e-12
6.30237e-12
1.36137e-12
3.4765e-12
5.86342e-12
1.91867e-12
6.82202e-12
1.93719e-12
3.56894e-12
2.41054e-12
2.20589e-11
7.58197e-12
2.07748e-11
1.89846e-11
7.35807e-11
4.02212e-12
2.78491e-12
2.6858e-12
1.54952e-12
1.93185e-12
2.435e-11
3.74466e-12
4.40305e-12
3.21075e-11
4.89116e-11
4.88235e-12
1.24699e-10
1.20312e-11
7.77642e-12
1.035e-12
5.95065e-12
2.7107e-12
3.54239e-12
2.34657e-11
4.09631e-11
1.65801e-11
2.15395e-11
1.07311e-11
4.91388e-12
1.07266e-12
6.11611e-12
1.17719e-12
1.66588e-12
3.30105e-12
9.35879e-12
9.26145e-12
5.5745e-11
1.89745e-12
1.24921e-11
6.23704e-12
7.5661e-12
2.23974e-12
2.7325e-12
1.21839e-12
3.02328e-12
6.1312e-11
4.85982e-13
2.35123e-11
1.13771e-11
9.11772e-12
4.33699e-13
6.52867e-12
1.48004e-12
1.28174e-11
3.20587e-12
5.17451e-11
3.05465e-12
1.56547e-12
1.23479e-11
3.44262e-11
7.7688e-12
3.98877e-11
1.19073e-12
2.37281e-12
2.95854e-11
9.37358e-12
6.57001e-13
3.6223e-12
4.59695e-12
1.56676e-12
7.07528e-13
3.09038e-11
5.25138e-12
7.44928e-13
7.52557e-12
3.31113e-11
2.32626e-11
3.17072e-13
7.63734e-12
1.20059e-11
1.25188e-12
2.7487e-11
1.48299e-11
1.97367e-13
2.98872e-13
1.49504e-12
3.6276e-13
9.87469e-12
4.3383e-13
1.72143e-11
8.29931e-13
1.48832e-11
1.38979e-12
1.94635e-12
1.55356e-10
1.03262e-11
6.3801e-13
3.62728e-10
8.56791e-11
1.46476e-12
7.4744e-12
1.05231e-12
1.77646e-11
3.64527e-13
1.59296e-11
2.14743e-12
4.24726e-11
2.4212e-12
2.83008e-12
6.28046e-13
3.37231e-12
6.01063e-12
1.12125e-12
3.89682e-11
9.94973e-12
6.12719e-12
7.24859e-12
1.69882e-11
1.6767e-13
4.70452e-12
2.44091e-11
1.14752e-10
9.32037e-12
1.60696e-12
6.56038e-11
2.00928e-12
1.49302e-11
4.79091e-12
2.54317e-11
3.79303e-13
1.13854e-11
3.75057e-11
4.23016e-12
2.24388e-12
1.16279e-11
4.52715e-11
1.16316e-11
1.49469e-11
3.26622e-12
6.10517e-12
4.92122e-12
2.40913e-11
1.12097e-11
3.50509e-12
1.48621e-13
1.80762e-11
2.00339e-11
4.63651e-11
1.00463e-11
1.43148e-11
2.76594e-13
8.30616e-14
3.80762e-11
1.5191e-11
3.17771e-12
1.24758e-11
3.92712e-12
1.74232e-12
1.04522e-12
6.74266e-13
3.52686e-13
4.01009e-13
1.27033e-11
4.75078e-13
2.15435e-11
2.90131e-12
3.6862e-13
4.19087e-13
3.61569e-12
1.9796e-12
1.48885e-12
9.83422e-13
5.61544e-11
2.90077e-13
3.05636e-13
2.93232e-12
7.9081e-13
1.12635e-13
1.35402e-12
2.87485e-12
2.12579e-13
2.48512e-11
1.3622e-11
1.29098e-11
1.24912e-12
7.47338e-12
3.20475e-13
3.68284e-12
1.88234e-12
1.24689e-12
1.33134e-12
4.17261e-12
)


// ************************************************************************* //
