/*--------------------------------*- C++ -*----------------------------------*\
  =========                 |
  \\      /  F ield         | OpenFOAM: The Open Source CFD Toolbox
   \\    /   O peration     | Website:  https://openfoam.org
    \\  /    A nd           | Version:  6
     \\/     M anipulation  |
\*---------------------------------------------------------------------------*/
FoamFile
{
    version     2.0;
    format      ascii;
    class       scalarField;
    location    "0.1/lagrangian/sprayCloud";
    object      mu;
}
// * * * * * * * * * * * * * * * * * * * * * * * * * * * * * * * * * * * * * //


572
(
0.000442313
0.000442319
0.000442389
0.000442308
0.00044241
0.000442222
0.000442326
0.000442448
0.000442228
0.000442387
0.00044228
0.000442336
0.000442366
0.000442346
0.000442356
0.000442317
0.000442329
0.000442327
0.000442453
0.000442886
0.00044244
0.000442448
0.000442366
0.000442252
0.000442497
0.000442375
0.000442403
0.000442249
0.000442285
0.00044244
0.00044225
0.000442436
0.000442438
0.000442356
0.000442329
0.000442367
0.00044233
0.00044236
0.00044236
0.000442432
0.000442563
0.00044236
0.000442294
0.000442436
0.000442279
0.00044215
0.000442462
0.000442311
0.00044242
0.000442423
0.000442434
0.00044222
0.000442361
0.000442384
0.000442429
0.000442319
0.000442336
0.000442351
0.000442311
0.000442366
0.000442429
0.000442492
0.000439965
0.000442329
0.000442101
0.000441387
0.000442146
0.000442466
0.000442389
0.000442466
0.00044251
0.000442509
0.000442384
0.000442392
0.000442406
0.00044251
0.000442387
0.000442355
0.000442209
0.000442519
0.000442303
0.000442867
0.0004425
0.000442302
0.000442195
0.000442208
0.000442489
0.000442537
0.000442267
0.000442542
0.000442276
0.000442539
0.000442429
0.000442417
0.000442481
0.000442401
0.000442455
0.000442417
0.000442371
0.000442205
0.00044199
0.000442426
0.000442426
0.00044238
0.000442379
0.000442262
0.000442249
0.000442372
0.000442226
0.000442322
0.000442226
0.000442239
0.000442475
0.000442475
0.000442462
0.000442449
0.00044247
0.000442672
0.000442661
0.000442661
0.000443287
0.000442672
0.000442642
0.000441888
0.000441781
0.000441683
0.000441682
0.000441709
0.000441738
0.000441739
0.000441708
0.000441708
0.000441776
0.000441855
0.000441867
0.000441912
0.000441838
0.00044184
0.000441902
0.000441921
0.000441926
0.000441799
0.000441835
0.000441902
0.000441794
0.000441867
0.000441893
0.000441891
0.000441867
0.000441892
0.000441954
0.000441888
0.000442067
0.000441891
0.00044203
0.000441776
0.000441372
0.000441951
0.000442044
0.000442038
0.000441951
0.000442773
0.000441966
0.000442028
0.000442326
0.000441892
0.000442111
0.000442038
0.000442032
0.000441951
0.000443484
0.000441969
0.000442326
0.000441939
0.000442023
0.000442035
0.000442041
0.000441981
0.000441773
0.000441998
0.000442216
0.000441886
0.000442156
0.000441994
0.000441994
0.000442005
0.000442071
0.000442265
0.000442093
0.000442072
0.000442252
0.000442061
0.00044199
0.000442213
0.000442083
0.000442214
0.000442109
0.000442055
0.000442033
0.000442067
0.000442091
0.000442219
0.000442273
0.000442375
0.000442148
0.000442265
0.000442182
0.000442233
0.000442374
0.000442364
0.000442349
0.000442233
0.000442271
0.000442144
0.000442233
0.000442032
0.000442216
0.000442264
0.000442282
0.0004424
0.000442226
0.000442293
0.000442178
0.000442129
0.000442274
0.000441876
0.000441963
0.000441963
0.000442043
0.000441894
0.000442456
0.000442576
0.000442464
0.000442609
0.000442466
0.000442595
0.000442674
0.000442674
0.000442584
0.000442561
0.000442684
0.00044242
0.000442566
0.000442645
0.000442318
0.000442076
0.000442681
0.000442691
0.000445084
0.000442846
0.000442674
0.000442487
0.000442733
0.000442564
0.000442445
0.000442653
0.000442102
0.000442584
0.000441962
0.000441962
0.000441947
0.000442102
0.000442019
0.000442299
0.000442404
0.000442892
0.000442003
0.000442822
0.000442318
0.000442638
0.000441962
0.000442544
0.000442567
0.000442469
0.000442003
0.00044245
0.000442784
0.000442367
0.000442469
0.00044238
0.00044238
0.000442532
0.000441926
0.000442576
0.000442337
0.000442354
0.000442648
0.000442721
0.000442775
0.000442661
0.000442457
0.000442352
0.000442337
0.000442457
0.000442382
0.000442291
0.000442648
0.000442721
0.000442426
0.000443351
0.000442197
0.000442082
0.000442278
0.000441485
0.000442526
0.000442415
0.000442467
0.000441485
0.000442589
0.000443051
0.000442415
0.000442623
0.000443105
0.000442415
0.000442665
0.000442589
0.000442785
0.000442785
0.000442583
0.000442785
0.000442316
0.000442199
0.000441696
0.00044241
0.000442475
0.00044183
0.000442354
0.00044049
0.000442354
0.000442133
0.000441925
0.00044049
0.000442136
0.000441629
0.000442298
0.000442248
0.000442298
0.000442437
0.000442188
0.000442371
0.000442001
0.000441884
0.000442357
0.00044227
0.000442345
0.000442847
0.000441766
0.000442434
0.000442188
0.000442852
0.000443383
0.000442231
0.000442216
0.000442317
0.000442281
0.000442169
0.000441791
0.000442317
0.000442281
0.000442128
0.000442005
0.00044185
0.000441874
0.000442663
0.000443188
0.000443144
0.000442732
0.000442732
0.000441757
0.000442419
0.000441573
0.000442384
0.000442259
0.000441524
0.000442913
0.000442759
0.000441938
0.000442549
0.000441692
0.000442023
0.000441694
0.000442425
0.000441991
0.000441722
0.000442247
0.00044239
0.000442184
0.000442085
0.00044222
0.000442589
0.000442647
0.00044236
0.000442308
0.000441997
0.000442755
0.000441646
0.0004427
0.000442139
0.000442274
0.000442342
0.000440667
0.000440856
0.000442123
0.000441805
0.000441129
0.000442089
0.00044129
0.000441934
0.000441833
0.00044208
0.000441716
0.00043955
0.000442065
0.000442361
0.000442361
0.00044161
0.000442265
0.000441251
0.00044223
0.000442265
0.000441281
0.000441661
0.000441131
0.000441312
0.000441848
0.000441722
0.000441509
0.000441621
0.000441766
0.000441661
0.000443024
0.000442988
0.000441382
0.000441831
0.000441947
0.000582125
0.000440597
0.00044128
0.000441415
0.000997868
0.000440597
0.000441269
0.000647771
0.000442791
0.00103575
0.000441217
0.000885765
0.000664474
0.000441217
0.000442208
0.000441765
0.000441576
0.000442617
0.000442208
0.000442006
0.00106242
0.00106836
0.000420703
0.000443193
0.000442827
0.000897185
0.000443033
0.000442827
0.00044495
0.00044431
0.000442357
0.000450497
0.000444124
0.000442459
0.000442459
0.000445786
0.000445387
0.000445387
0.000441168
0.00101717
0.00107758
0.000441498
0.00105109
0.00106573
0.00117347
0.000441153
0.00107104
0.000441299
0.000787081
0.000441494
0.00116983
0.00044143
0.00104554
0.00113902
0.000969428
0.00114279
0.000441091
0.000440681
0.00102684
0.00109999
0.00111744
0.00110984
0.00107777
0.00113
0.00109325
0.00108186
0.00106132
0.000496482
0.000440465
0.00106302
0.000440904
0.000440878
0.000440904
0.00105702
0.0010371
0.00108859
0.000749793
0.00112488
0.00102264
0.00109114
0.00101883
0.000995665
0.000870882
0.00109239
0.000998128
0.000952469
0.00106042
0.00108903
0.00112082
0.00105302
0.00106746
0.00107784
0.000714932
0.000547209
0.00105216
0.00111411
0.000441627
0.00104548
0.00107831
0.000441469
0.00107731
0.0010669
0.000441627
0.00113721
0.00115184
0.000441607
0.000895531
0.000605794
0.000440903
0.000744821
0.00107687
0.00117833
0.000680918
0.00105287
0.000447098
0.00100228
0.00065086
0.00105368
0.00115371
0.000444113
0.000984048
0.00102464
0.000444113
0.00109958
0.000873556
0.00112954
0.00105372
0.00105634
0.00094652
0.00108189
0.00102458
0.00107702
0.00105328
0.00105396
0.00105733
0.00103805
0.0010472
)


// ************************************************************************* //
