/*--------------------------------*- C++ -*----------------------------------*\
  =========                 |
  \\      /  F ield         | OpenFOAM: The Open Source CFD Toolbox
   \\    /   O peration     | Website:  https://openfoam.org
    \\  /    A nd           | Version:  6
     \\/     M anipulation  |
\*---------------------------------------------------------------------------*/
FoamFile
{
    version     2.0;
    format      ascii;
    class       scalarField;
    location    "0.1/lagrangian/sprayCloud";
    object      nParticle;
}
// * * * * * * * * * * * * * * * * * * * * * * * * * * * * * * * * * * * * * //


572
(
1.5183
2.41971
1.24257
1.33876
2.94789
0.956299
2.81541
1.92946
0.720136
1.1929
3.67551
0.483507
1.19346
4.01642
3.52735
3.82153
4.63371
0.3501
2.04238
2.43165
7.34015
3.07043
0.740889
2.77593
3.4767
1.00992
1.55196
1.4623
0.326616
3.54823
0.93845
1.5436
1.51692
0.603345
2.37053
1.80246
1.29343
4.83285
5.34522
5.33448
6.15298
2.56157
5.17499
2.81988
0.623404
4.18039
2.53059
8.19724
0.768238
10.1751
3.97373
0.425597
5.77335
2.57695
2.60225
4.89343
2.64975
3.79701
4.88281
3.62086
0.931426
3.47808
2.27661
6.39151
1.92612
2.93938
1.71181
3.04705
3.51528
2.05069
10.6194
2.83062
6.6231
7.21825
5.1197
2.19008
4.63716
4.51924
4.71778
8.64716
2.32573
6.1315
4.84909
1.79747
1.43539
4.29773
12.8401
1.53911
0.894422
8.52598
0.936594
0.872588
5.08791
12.2567
2.07186
13.0915
1.93747
1.61793
7.6483
3.04829
2.79947
3.82098
1.00267
5.46949
9.96702
6.99478
2.71333
11.3786
17.8452
0.594756
6.58022
3.63426
7.00708
3.29739
4.24704
2.35848
0.972653
9.57286
3.3868
5.45579
2.27379
6.29555
0.421918
7.46102
8.57422
0.832704
1.29558
1.07046
1.34052
1.86037
1.05183
0.197576
0.459695
0.787274
1.4667
1.39661
0.75677
0.542277
1.36037
2.19574
1.21076
1.15276
1.05235
0.574703
0.792762
0.702082
0.887818
0.614819
0.758852
1.03661
0.9067
1.16606
0.851386
1.1469
1.45641
0.564338
2.19449
1.18936
0.77304
1.49001
2.36984
1.65007
3.44404
2.44824
0.727108
0.384584
1.31061
1.59301
1.20264
1.3411
0.844701
2.07534
1.04941
2.23475
1.3196
3.04534
2.88275
2.0908
0.37966
1.46214
1.275
1.81486
0.776914
1.22274
1.21364
0.768869
2.24078
3.49357
1.84287
1.16282
2.32921
1.34611
0.494743
0.903593
1.46441
3.42002
2.82638
0.47503
0.343405
2.12539
1.0644
1.71411
1.84231
2.02412
0.920501
0.468313
4.33722
1.38362
1.18415
2.083
0.6355
0.713441
2.92265
2.58625
0.727867
1.47293
3.87053
1.55011
0.841721
5.74899
1.18939
0.354984
0.646917
0.940522
0.833419
5.92705
0.976825
1.77433
4.79998
0.532368
2.45152
6.11798
4.39692
10.6934
5.96421
13.7058
5.7906
8.85627
10.4177
8.10821
3.2955
3.708
8.76301
11.4452
4.52152
8.94572
8.81766
3.31082
11.0311
5.71032
8.74173
12.3052
2.74046
3.41187
21.7416
2.42089
17.4874
8.9477
4.62411
4.48308
12.6978
0.909193
10.0172
1.13235
9.54627
12.6667
15.8476
3.48597
2.48939
2.59195
8.48856
2.40495
12.22
15.7716
15.3939
19.1392
3.83411
11.9391
4.3486
3.43694
0.644543
19.3434
5.16669
24.5578
5.81884
2.7077
21.5986
23.6179
14.5813
30.3167
43.4925
13.5983
2.15867
2.69044
13.1547
4.87729
13.218
1.20518
16.85
7.79022
1.71843
40.349
2.25497
8.11309
2.32223
12.7649
3.01653
5.53364
6.84569
17.8901
3.58426
8.10837
3.22255
1.44803
1.94203
13.536
20.1003
30.3527
1.30872
12.7344
16.2977
1.25086
3.91837
6.63753
0.741314
0.764383
18.3067
21.8805
3.88459
2.71183
4.30237
2.42515
41.4177
6.61087
2.44494
18.4017
1.99902
1.43568
0.305654
8.06381
15.7037
15.0662
23.9232
6.73758
3.97646
4.20811
14.9655
2.16623
8.60483
4.20593
17.1818
21.6004
3.03383
12.1793
4.93191
6.27358
58.5581
5.5971
6.49476
2.48994
11.9805
2.0809
1.34281
9.00626
3.08994
17.2374
10.3093
7.47911
18.451
33.0363
22.1253
20.1078
50.9633
14.919
7.78542
43.6007
10.8825
38.0519
18.251
28.9846
2.88973
7.47527
4.44428
4.07609
0.877995
24.1426
21.5266
23.7339
28.7488
23.0591
3.80558
13.7287
11.6759
1.76524
2.53978
13.6588
0.511164
4.94933
7.65731
119.193
21.0781
22.6417
17.3258
4.06756
2.5097
6.42715
4.18769
7.68876
16.1373
92.5433
14.564
37.963
50.2363
22.7228
4.99088
11.4461
1.00092
31.4504
4.77705
8.9211
7.35401
40.9491
19.1519
42.9522
41.9023
1.10294
139.148
2.98598
6.17095
3.91042
82.2093
11.0736
57.076
7.26815
14.1295
0.945428
16.0153
30.3312
3.84537
2.67893
12.7369
2.67805
39.7313
19.9381
1.78721
5.64087
159.066
14.9597
11.7879
47.2974
86.2534
1.97473
11.2169
79.0739
10.2825
2.30569
3.41072
176.575
9.31359
5.9247
66.165
2.55192
8.07636
506.854
179.817
35.9471
251.839
10.6395
131.061
3.30295
80.3401
4.48001
54.9147
42.5189
0.53269
5.39836
87.3726
0.16732
0.708361
49.082
8.39762
54.7304
3.24203
152.56
3.49114
28.0277
1.41709
23.9964
20.5294
75.5734
14.0745
15.2329
65.3345
2.37732
5.91881
9.61135
9.71352
4.14461
469.698
15.7554
3.33534
0.721486
9.9079
31.8561
0.780311
23.8852
3.21441
18.1082
2.94874
212.353
3.67597
1.11589
10.9931
20.7242
4.39918
1.12992
8.36647
5.2086
12.6951
6.79176
16.8515
3.78653
4.53394
14.5001
596.257
2.58736
2.33452
2.20659
5.26158
3.69265
357.558
595.332
1.29869
2.4842
11.8757
6.78303
18.6366
43.2062
81.625
141.132
269.817
177.977
3.1101
160.384
4.96411
29.9933
213.19
170.685
19.9191
47.6138
37.8205
57.2585
0.948701
183.653
248.989
14.7248
54.5996
626.805
69.316
14.889
201.354
4.02318
6.01641
6.90524
82.9414
14.4658
269.87
20.8744
40.8412
68.5057
30.075
9.59593
)


// ************************************************************************* //
