/*--------------------------------*- C++ -*----------------------------------*\
  =========                 |
  \\      /  F ield         | OpenFOAM: The Open Source CFD Toolbox
   \\    /   O peration     | Website:  https://openfoam.org
    \\  /    A nd           | Version:  6
     \\/     M anipulation  |
\*---------------------------------------------------------------------------*/
FoamFile
{
    version     2.0;
    format      ascii;
    class       labelField;
    location    "0.1/lagrangian/sprayCloud";
    object      origId;
}
// * * * * * * * * * * * * * * * * * * * * * * * * * * * * * * * * * * * * * //


572
(
18965
19050
19046
19085
19109
19141
19135
19144
19155
19164
19177
19142
19167
19168
19102
19173
19178
19157
19196
19110
19201
19211
19226
19227
19198
19229
19156
19230
19233
19179
19251
19193
19224
19254
19252
19235
19259
19247
19257
19262
19264
19274
19276
19268
19288
19289
19159
19275
19246
19299
19221
19308
19271
19291
19307
19309
19292
19313
19310
19267
19321
19295
19315
19334
19325
19341
19333
19323
19352
19316
19345
19281
19358
19269
19336
19369
19355
19370
19378
19398
19389
19405
19332
19384
19408
19411
19365
19387
19404
19407
19416
19413
19376
19391
19397
19424
19425
19400
19421
19436
19438
19429
19435
19367
19431
19452
19463
19433
19453
19466
19464
19467
19412
19440
19446
19470
19468
19410
19451
19427
19497
19393
19461
19455
19482
18100
18247
18198
18351
18367
18428
18466
18431
18407
18429
18475
18559
18558
18597
18594
18619
18404
18625
18338
18639
18549
18677
18660
18642
18686
18693
18747
18520
18773
18486
18588
18780
18696
18590
18702
18837
18830
18823
18800
18844
18855
18470
18849
18804
18858
18859
18882
18890
18889
18797
18856
18798
18916
18885
18866
18438
18943
18607
18939
18942
18903
18941
18893
18960
18909
18917
18925
18974
18683
18937
18915
18961
19004
19000
18989
18977
19018
18963
19015
18884
18971
18990
19023
19041
19039
19030
19059
19038
19047
19057
19078
19063
19066
19096
19021
19099
19088
18964
19107
19105
19071
19090
19062
19125
18214
19340
19375
19386
19396
19409
19418
19474
19479
19485
19476
19481
19494
19488
19477
19483
19499
19502
19487
19506
19475
19489
19514
19500
19511
19525
19523
19524
19534
19542
19544
19547
19546
19550
19541
19545
19553
19557
19526
19551
19538
19566
19554
19559
19564
19568
19561
19543
19577
19574
19580
19586
19587
19592
19583
19579
19598
19582
19596
19578
19599
19603
19608
19597
19614
19607
19616
19610
19617
19619
19576
19625
19615
19624
19588
19630
19629
19632
19601
19637
19628
19639
19643
19640
19645
19647
19623
19648
19649
19633
19655
19656
19660
19669
19636
19663
19674
19668
19670
19673
19679
19681
19677
19688
19689
19667
19672
19671
19692
19690
19676
19699
19701
19659
19683
19702
19714
19703
19717
19704
19715
19720
19687
19723
19698
19705
19710
19724
19706
19708
19738
19736
19730
19733
19711
19728
19718
19731
19734
19751
19745
19741
19725
19727
19746
19761
19765
19764
19766
19750
19754
19756
19770
19767
19752
19772
19716
19732
19755
19758
19759
19762
19768
19769
19771
19775
19778
19781
19783
19784
19785
19786
19787
19788
19789
19790
19791
19792
19793
19794
19795
19796
19799
19800
19801
19802
19804
19805
19807
19808
19809
19810
19811
19812
19813
19814
19815
19816
19817
19818
19819
19820
19822
19823
19824
19826
19827
19828
19829
19830
19831
19832
19833
19836
19837
19838
19839
19840
19841
19842
19843
19844
19845
19846
19847
19848
19849
19850
19852
19853
19854
19855
19856
19857
19858
19859
19860
19861
19862
19863
19864
19865
19866
19867
19868
19869
19870
19871
19872
19873
19874
19876
19877
19878
19879
19880
19881
19882
19883
19884
19885
19886
19887
19888
19889
19890
19891
19892
19893
19895
19896
19897
19898
19899
19900
19901
19902
19903
19904
19905
19906
19907
19908
19909
19910
19911
19912
19913
19914
19915
19916
19917
19918
19919
19920
19921
19922
19923
19924
19925
19926
19927
19928
19929
19930
19931
19932
19933
19934
19935
19936
19937
19938
19939
19941
19942
19943
19944
19945
19946
19947
19948
19949
19950
19951
19952
19953
19954
19955
19956
19957
19958
19959
19960
19961
19962
19963
19964
19965
19966
19967
19968
19969
)


// ************************************************************************* //
