/*--------------------------------*- C++ -*----------------------------------*\
  =========                 |
  \\      /  F ield         | OpenFOAM: The Open Source CFD Toolbox
   \\    /   O peration     | Website:  https://openfoam.org
    \\  /    A nd           | Version:  6
     \\/     M anipulation  |
\*---------------------------------------------------------------------------*/
FoamFile
{
    version     2.0;
    format      ascii;
    class       vectorField;
    location    "0.1/lagrangian/sprayCloud";
    object      position0;
}
// * * * * * * * * * * * * * * * * * * * * * * * * * * * * * * * * * * * * * //


572
(
(0.000492401 0.00523077 2.03288e-20)
(0.000501068 0.00492502 -6.77626e-21)
(0.000497477 0.00487585 -6.77626e-21)
(0.000486625 0.00458806 6.77626e-21)
(0.000541066 0.00423078 -6.77626e-21)
(0.00055856 0.00217301 3.38813e-21)
(0.000256236 0.00320963 5.0822e-21)
(0.000400359 0.00344249 0)
(0.000375302 0.00164652 0)
(0.000166611 0.00369618 -1.69407e-21)
(0.000319254 0.000855061 1.95876e-21)
(0.000440953 0.0050644 2.71051e-20)
(0.000173477 0.00399337 6.77626e-21)
(0.000150137 0.00389695 -5.0822e-21)
(0.00022044 0.00508077 -8.47033e-22)
(0.000227593 0.00342438 6.77626e-21)
(0.000317897 0.00318332 0)
(0.000423168 0.005215 -3.38813e-21)
(0.000314157 0.00213974 0)
(0.000331752 0.00520654 -7.6233e-21)
(0.000309842 0.00148103 -1.69407e-21)
(0.00046973 0.00217891 7.19978e-21)
(0.000522668 0.00253078 0)
(0.000117306 0.00215707 1.69407e-21)
(0.000171706 0.00447007 -1.35525e-20)
(0.000371437 0.00241273 6.77626e-21)
(0.000374509 0.00524548 2.71051e-20)
(0.000470392 0.00287223 0)
(0.000543035 0.00371833 -1.35525e-20)
(0.00049568 0.00506843 1.35525e-20)
(0.000322357 0.000964106 0)
(0.00026186 0.00503777 0)
(0.000214078 0.00433085 0)
(0.000543379 0.00279855 3.38813e-21)
(0.000554793 0.00293001 -1.35525e-20)
(0.000540154 0.00449644 3.38813e-21)
(0.000568894 0.00280395 0)
(0.000170466 0.00285687 5.0822e-21)
(0.000524708 0.00285399 -6.77626e-21)
(0.000263665 0.00249366 -5.71747e-21)
(0.000137519 0.00320383 -3.38813e-21)
(0.000494397 0.00314838 1.35525e-20)
(0.000318917 0.00266743 3.38813e-21)
(0.000377238 0.00379115 -1.35525e-20)
(0.000197234 0.0026797 -1.01644e-20)
(0.000314301 0.00142647 3.38813e-21)
(0.000411709 0.00518999 -2.96462e-20)
(0.00053541 0.0036078 6.77626e-21)
(0.000124053 0.00522155 0)
(0.000266819 0.00203806 0)
(0.000538536 0.00480462 0)
(0.00013431 0.00266808 -1.01644e-20)
(0.000337423 0.00424968 0)
(0.000141062 0.00347999 7.99387e-21)
(0.00029345 0.00356057 -1.69407e-21)
(0.000537832 0.002263 -3.38813e-21)
(0.000292445 0.00395029 3.38813e-21)
(0.000485292 0.00184772 -3.38813e-21)
(0.000299391 0.00268298 1.01644e-20)
(0.000466302 0.00463225 -1.10114e-20)
(0.000355461 0.00312564 5.0822e-21)
(0.000211092 0.00412007 -2.03288e-20)
(0.000525109 0.00417596 -6.77626e-21)
(0.000234862 0.00152137 -3.38813e-21)
(0.000495429 0.00409972 0)
(0.000242849 0.00247531 -6.77626e-21)
(0.000529212 0.00409091 -1.35525e-20)
(0.000161025 0.00416171 -2.71051e-20)
(0.000204358 0.00162087 3.38813e-21)
(0.000386495 0.00440792 -1.69407e-20)
(0.000361365 0.00295126 -6.77626e-21)
(0.00056223 0.00500775 1.35525e-20)
(0.00027613 0.00244866 -3.38813e-21)
(0.000457211 0.00478548 -2.03288e-20)
(0.000181308 0.00432533 -6.77626e-21)
(0.00012899 0.00296426 -1.35525e-20)
(0.000206078 0.00372361 -6.77626e-21)
(0.00054949 0.00375123 -1.35525e-20)
(0.000366771 0.00264776 -3.38813e-21)
(0.000310877 0.000842497 3.38813e-21)
(0.000430778 0.00298284 -1.01644e-20)
(0.000437819 0.00121128 0)
(0.000247665 0.00445405 -4.06576e-20)
(0.000229123 0.00440485 -6.77626e-21)
(0.000460316 0.00276548 1.69407e-21)
(0.000380754 0.00233885 -3.38813e-21)
(0.000545947 0.00381826 -6.77626e-21)
(0.000182683 0.00417299 1.41878e-20)
(0.000249635 0.00402145 -1.34466e-20)
(0.000516196 0.002852 6.77626e-21)
(0.000301849 0.00261553 -6.77626e-21)
(0.000252822 0.0037767 -6.77626e-21)
(0.0003601 0.00443736 -2.03288e-20)
(0.000165914 0.0038161 0)
(0.000197379 0.00467612 0)
(0.000227832 0.00189394 -6.77626e-21)
(0.000330809 0.00314866 0)
(0.000452316 0.00479747 6.77626e-21)
(0.000247149 0.00303014 -3.38813e-21)
(0.000508363 0.00233996 0)
(0.000276877 0.00225003 0)
(0.000230403 0.00342611 0)
(0.000299322 0.00351411 -2.71051e-20)
(0.000214655 0.00458521 -1.46113e-20)
(0.00022571 0.00303184 -1.01644e-20)
(0.000162887 0.0019206 -2.96462e-21)
(0.0004958 0.00130859 1.69407e-21)
(0.000120305 0.00297141 -5.92923e-21)
(0.000465163 0.00112793 -1.79995e-21)
(0.000199918 0.00315754 -1.35525e-20)
(0.000171538 0.00100933 3.38813e-21)
(0.000550287 0.00103261 0)
(0.000138203 0.00414854 -1.35525e-20)
(0.000250618 0.00339153 3.38813e-21)
(0.000473262 0.00331427 1.35525e-20)
(0.0003906 0.00267191 -3.38813e-21)
(0.000529838 0.00358189 2.76609e-21)
(0.000549347 0.00433039 -3.38813e-21)
(0.00045116 0.00357948 -2.96462e-20)
(0.000296349 0.00427243 -1.18585e-20)
(0.000384535 0.000365088 -8.47033e-22)
(0.000426917 0.0046831 1.35525e-20)
(0.000185075 0.00472735 6.77626e-21)
(0.000248709 0.00308535 0)
(0.000384368 0.00188032 3.38813e-21)
(0.000168175 0.00432835 -1.35525e-20)
(0.000133997 0.000686342 -7.41154e-22)
(0.00015797 0.00388379 -2.5411e-21)
(0.000315723 0.000513837 -1.05879e-21)
(0.000126589 0.000550322 -8.47033e-22)
(0.000254736 0.000989738 0)
(0.000574814 0.00265035 0)
(0.000470007 0.00401159 -6.77626e-21)
(0.000413192 0.00435145 0)
(0.000396735 0.00332979 1.35525e-20)
(0.00037954 0.00275065 -1.27055e-21)
(0.000409226 0.0018805 -6.77626e-21)
(0.000253624 0.00241876 4.23516e-22)
(0.000387192 0.00029922 0)
(0.000485967 0.000480155 0)
(0.000250869 0.00133858 0)
(0.00031447 0.00462586 -3.38813e-21)
(0.000500527 0.00139682 -6.77626e-21)
(0.000528056 0.00493111 -2.03288e-20)
(0.000227269 0.00211395 0)
(0.000514458 0.00412835 5.0822e-21)
(0.000127154 0.00249207 1.01644e-20)
(0.000393668 0.0035133 -2.03288e-20)
(0.00028135 0.00372863 6.77626e-21)
(0.000220228 0.0020537 -6.77626e-21)
(0.000225485 0.00273646 0)
(0.000328443 0.00226462 -6.77626e-21)
(0.000468671 0.00481349 0)
(0.000345805 0.00175971 3.38813e-21)
(0.000464149 0.00471568 -1.35525e-20)
(0.000508291 0.00466364 -3.38813e-21)
(0.000392844 0.00158773 -8.47033e-22)
(0.000246095 0.00406061 -2.03288e-20)
(0.000120225 0.00436031 -1.35525e-20)
(0.000328944 0.00339057 1.01644e-20)
(0.000487648 0.00098565 -6.35275e-22)
(0.00036527 0.0020394 3.38813e-21)
(0.00045571 0.00308257 2.46169e-21)
(0.000239044 0.00301844 -6.77626e-21)
(0.000531451 0.00256318 3.38813e-21)
(0.000545643 0.00267572 0)
(0.000499999 0.0047749 -6.77626e-21)
(0.000391319 0.00247829 0)
(0.000294381 0.00365152 -6.77626e-21)
(0.000391426 0.00258253 0)
(0.000478053 0.00338915 1.01644e-20)
(0.000384448 0.00253442 -5.0822e-21)
(0.000413969 0.00233053 -3.38813e-21)
(0.000485148 0.00270581 -3.38813e-21)
(0.000191451 0.00466448 0)
(0.000425227 0.00356585 -8.41739e-21)
(0.000443943 0.00464705 -3.38813e-21)
(0.000260836 0.00232188 3.38813e-21)
(0.000557351 0.00410524 -6.77626e-21)
(0.000424443 0.0037752 -1.35525e-20)
(0.000396163 0.00492539 0)
(0.000519147 0.00160752 5.0822e-21)
(0.000494451 0.00508706 2.37169e-20)
(0.000257886 0.0025305 -1.18585e-20)
(0.000378599 0.00258114 0)
(0.000402229 0.00425112 0)
(0.00027776 0.00282161 6.77626e-21)
(0.000186245 0.0038079 -1.35525e-20)
(0.000416936 0.00276142 3.38813e-21)
(0.000205003 0.00427193 -6.77626e-21)
(0.000567082 0.00373752 -6.77626e-21)
(0.000268708 0.00439439 -2.5411e-20)
(0.000555508 0.00314666 -6.77626e-21)
(0.000542778 0.00496732 0)
(0.000486268 0.00423717 0)
(0.000524924 0.00458943 -6.77626e-21)
(0.000528207 0.00412496 2.5411e-21)
(0.000422926 0.00136145 -8.47033e-21)
(0.000165104 0.00208707 8.89385e-21)
(0.000508212 0.00366769 0)
(0.000134856 0.0040519 0)
(0.000474497 0.00149904 -2.5411e-21)
(0.000458743 0.00423117 6.77626e-21)
(0.000308273 0.00251946 0)
(0.00018889 0.00513856 -6.77626e-21)
(0.0004138 0.00470971 -1.35525e-20)
(0.00034699 0.00350986 0)
(0.000493483 0.00230264 -5.0822e-21)
(0.000287063 0.00141176 3.38813e-21)
(0.000235917 0.001687 -3.38813e-21)
(0.000252762 0.00263439 1.69407e-21)
(0.000120067 0.00206352 0)
(0.000236116 0.00323681 -1.35525e-20)
(0.000199506 0.00275112 -6.77626e-21)
(0.000373197 0.00282134 0)
(0.000293199 0.00232201 3.38813e-21)
(0.000127756 0.00302476 0)
(0.000152956 0.00274207 -6.77626e-21)
(0.000568358 0.00141304 -3.38813e-21)
(0.000490462 0.00316247 0)
(0.000378535 0.00125831 -1.69407e-21)
(0.000132297 0.00246021 -6.77626e-21)
(0.000504131 0.0051683 2.03288e-20)
(0.000472568 0.00216276 3.38813e-21)
(0.000253508 0.00274532 -1.35525e-20)
(0.000407673 0.00342026 -6.77626e-21)
(0.000132725 0.00402751 -1.69407e-21)
(0.000516533 0.00387421 6.77626e-21)
(0.000412366 0.00240196 5.92923e-21)
(0.000214948 0.00518899 2.71051e-20)
(0.000141192 0.00495218 6.77626e-21)
(0.00036186 0.00504874 1.35525e-20)
(0.000313993 0.00474706 -2.71051e-20)
(0.000490033 0.00476936 6.77626e-21)
(0.000321056 0.00472504 -1.14349e-20)
(0.000276519 0.00433683 -1.35525e-20)
(0.000575066 0.00267782 -6.77626e-21)
(0.000265507 0.00274815 -6.77626e-21)
(0.000300653 0.00203732 3.38813e-21)
(0.000273891 0.00411881 0)
(0.000533551 0.00415319 0)
(0.00022804 0.00116904 -3.38813e-21)
(0.000413339 0.00343582 0)
(0.000489972 0.00463524 -1.10114e-20)
(0.00042703 0.00457535 1.35525e-20)
(0.000323834 0.00274542 0)
(0.000244456 0.00219422 6.77626e-21)
(0.000352916 0.00470873 0)
(0.000351514 0.00256539 -3.38813e-21)
(0.000343987 0.00507126 -1.35525e-20)
(0.000384105 0.00494375 -4.06576e-20)
(0.00015915 0.00330391 -6.77626e-21)
(0.000410947 0.00489156 -6.77626e-21)
(0.000145889 0.00440364 -2.03288e-20)
(0.000199418 0.000754935 -4.23516e-22)
(0.000328362 0.00366382 0)
(0.000252023 0.00297809 0)
(0.000257023 0.00329901 0)
(0.000535932 0.00251055 -3.38813e-21)
(0.000290401 0.00250082 8.04681e-21)
(0.000531551 0.00224231 0)
(0.000417781 0.00371351 -1.35525e-20)
(0.000196162 0.00284734 -1.27055e-20)
(0.000380349 0.00468489 0)
(0.000129258 0.00359616 -6.77626e-21)
(0.000295335 0.00311605 2.5411e-21)
(0.000419636 0.00264208 -6.77626e-21)
(0.000526731 0.00511878 1.35525e-20)
(0.000231171 0.00455827 0)
(0.000129356 0.00506442 0)
(0.000552321 0.00248446 3.38813e-21)
(0.000512496 0.00479538 1.35525e-20)
(0.000305058 0.00357686 -1.18585e-20)
(0.000292084 0.00331437 0)
(0.000495342 0.00260046 0)
(0.000247372 0.00377689 -1.35525e-20)
(0.000555873 0.00502409 1.01644e-20)
(0.000154362 0.00270447 -6.77626e-21)
(0.000446445 0.00381775 0)
(0.00024131 0.00337905 1.35525e-20)
(0.000442569 0.00437203 -1.6623e-20)
(0.000434988 0.00251353 6.77626e-21)
(0.000225922 0.00128841 -1.69407e-21)
(0.000348605 0.00410827 6.77626e-21)
(0.000410367 0.00470842 -1.35525e-20)
(0.000159934 0.00283419 -1.35525e-20)
(0.000206999 0.00449381 0)
(0.000473651 0.0028599 0)
(0.000471971 0.00483138 2.96462e-21)
(0.000225832 0.00236477 -3.38813e-21)
(0.000150519 0.00190453 6.77626e-21)
(0.000474952 0.00231813 -5.0822e-21)
(0.00039606 0.00498161 1.52466e-20)
(0.000395853 0.00270569 -3.38813e-21)
(0.000447751 0.00368821 -2.20229e-20)
(0.00024694 0.00137229 -7.41154e-21)
(0.000282548 0.00404857 6.77626e-21)
(0.00023323 0.00355546 -1.01644e-20)
(0.000384144 0.00179403 3.38813e-21)
(0.000561611 0.00519748 -3.38813e-21)
(0.00048136 0.000521393 -1.69407e-21)
(0.000420807 0.00308919 5.71747e-21)
(0.000264383 0.00119591 -6.77626e-21)
(0.00015119 0.00522916 -7.41154e-21)
(0.000242589 0.00269305 -3.38813e-21)
(0.000442413 0.00231218 -6.77626e-21)
(0.000549027 0.00270333 0)
(0.00021476 0.00491621 -1.35525e-20)
(0.000354893 0.00209289 1.69407e-21)
(0.000389893 0.00384774 -3.38813e-21)
(0.000210594 0.00282908 0)
(0.00031523 0.00193992 -2.5411e-21)
(0.00019913 0.00416842 -2.71051e-20)
(0.00011714 0.00332835 -8.47033e-21)
(0.000117925 0.000978037 -1.69407e-21)
(0.000136854 0.00444823 -1.35525e-20)
(0.000555355 0.0029661 -1.35525e-20)
(0.000385092 0.00245803 0)
(0.000293522 0.00518348 2.71051e-20)
(0.00022808 0.00233746 0)
(0.000178618 0.00173368 -2.11758e-21)
(0.000378341 0.00189226 -3.38813e-21)
(0.000468339 0.000730413 1.69407e-21)
(0.000289313 0.00504844 1.35525e-20)
(0.000508548 0.00476059 -6.77626e-21)
(0.00055778 0.00205589 0)
(0.000334432 0.00324421 0)
(0.000276429 0.0030196 -6.77626e-21)
(0.000511119 0.00353692 -2.03288e-20)
(0.000369307 0.00311168 -8.47033e-21)
(0.000164905 0.00183582 3.38813e-21)
(0.000177666 0.00451622 -1.35525e-20)
(0.000310928 0.00152463 -6.77626e-21)
(0.000473732 0.00259751 -6.77626e-21)
(0.000138005 0.0051357 1.35525e-20)
(0.000408657 0.00436303 0)
(0.000286057 0.00519881 1.35525e-20)
(0.000123156 0.00331 0)
(0.000483837 0.00524578 1.35525e-20)
(0.00037465 0.00496311 1.77877e-20)
(0.000331997 0.00379892 -6.77626e-21)
(0.000349886 0.00301106 0)
(0.000216596 0.00514532 2.03288e-20)
(0.000479151 0.00511524 6.77626e-21)
(0.000258726 0.00426732 0)
(0.000407507 0.00312653 6.77626e-21)
(0.000299279 0.00382996 -1.18585e-20)
(0.000233 0.00205059 0)
(0.000420467 0.00419502 2.71051e-20)
(0.000548212 0.00383317 1.35525e-20)
(0.000179785 0.000124763 0)
(0.000561964 0.0048 0)
(0.000573326 0.00299368 -6.77626e-21)
(0.000474055 0.00490926 -1.35525e-20)
(0.000173494 0.00479739 0)
(0.00014187 0.00474578 -2.03288e-20)
(0.000396937 0.00289031 -6.77626e-21)
(0.0001706 0.00493678 2.20229e-20)
(0.000555552 0.00471631 -2.03288e-20)
(0.000507311 0.000934004 1.69407e-21)
(0.000299443 0.00182391 3.38813e-21)
(0.000360674 0.00422895 0)
(0.000351062 0.00456941 2.71051e-20)
(0.000471062 0.00491008 -1.35525e-20)
(0.000159792 0.0048956 -6.77626e-21)
(0.000296476 0.00466356 -1.35525e-20)
(0.000235128 0.0044607 -1.35525e-20)
(0.000157977 0.00416173 -1.35525e-20)
(0.000411121 0.00231782 0)
(0.000528765 0.00173428 1.69407e-21)
(0.000467224 0.0028171 -6.77626e-21)
(0.000491908 0.00487667 6.77626e-21)
(0.000310153 0.00402843 -8.47033e-21)
(0.000313294 0.00244503 -1.69407e-21)
(0.000226361 0.00144843 -1.27055e-21)
(0.000165548 0.000492107 -1.27055e-21)
(0.000307485 0.00123126 -4.23516e-22)
(0.000127602 0.00142743 -8.47033e-22)
(0.000219216 0.00379278 -6.77626e-21)
(0.000231768 0.00291697 0)
(0.000134655 0.00477988 1.35525e-20)
(0.000406056 0.00206705 0)
(0.000560173 0.00394925 0)
(0.000144033 0.0052076 1.35525e-20)
(0.000406658 0.00323815 -1.35525e-20)
(0.00038076 0.0051901 2.71051e-20)
(0.000472905 0.00505518 2.03288e-20)
(0.000446376 0.00424902 0)
(0.000269269 0.00405744 -1.01644e-20)
(0.000335985 0.00422325 1.35525e-20)
(0.000148132 0.00505913 -1.35525e-20)
(0.000115747 0.00391316 -1.01644e-20)
(0.000199114 0.00509586 1.01644e-20)
(0.000179102 0.00350966 0)
(0.000549963 0.00511248 1.35525e-20)
(0.000548353 0.00149021 -7.19978e-21)
(0.000351925 0.00485527 -1.43996e-20)
(0.000333711 0.00167404 3.38813e-21)
(0.000574665 0.00442976 6.77626e-21)
(0.000165434 0.00419789 6.77626e-21)
(0.000482866 0.00316803 1.35525e-20)
(0.000301402 0.00260688 0)
(0.000445353 0.0045341 1.01644e-20)
(0.000466747 0.00212437 -3.38813e-21)
(0.000197278 0.00343295 -6.77626e-21)
(0.000529452 0.00484709 -6.77626e-21)
(0.000536855 0.00157903 -5.0822e-21)
(0.000295231 0.00380008 0)
(0.000125079 0.00305797 1.35525e-20)
(0.000252652 0.0047055 -2.71051e-20)
(0.000226368 0.0018837 -6.77626e-21)
(0.00044493 0.00443448 -1.35525e-20)
(0.000180181 0.00464049 -2.03288e-20)
(0.000384749 0.00331021 6.77626e-21)
(0.000169949 0.00375861 -1.35525e-20)
(0.00045618 0.00431726 -1.01644e-20)
(0.000220401 0.00307288 0)
(0.000225266 0.00497422 2.37169e-20)
(0.000326979 0.00211066 -6.77626e-21)
(0.000318219 0.00262725 -9.31736e-21)
(0.000313354 0.00356911 -2.03288e-20)
(0.000503449 0.00416739 1.69407e-20)
(0.000469849 0.00349959 0)
(0.000269769 0.00518232 2.71051e-20)
(0.000377197 0.00521501 1.35525e-20)
(0.000539576 0.00303053 3.38813e-21)
(0.000293743 0.00235153 0)
(0.000163792 0.00484857 -1.35525e-20)
(0.00035371 0.00399097 -1.35525e-20)
(0.000372017 0.00471131 -1.35525e-20)
(0.000400254 0.000699773 -3.38813e-21)
(0.000382563 0.00493178 -1.35525e-20)
(0.000263636 0.00469567 -1.35525e-20)
(0.000125864 0.00494716 -3.38813e-21)
(0.000118917 0.00282833 -5.0822e-21)
(0.000359575 0.00282711 0)
(0.000482608 0.00496484 -1.35525e-20)
(0.000268515 0.00392391 0)
(0.000394701 0.00455846 0)
(0.00038114 0.00202926 -3.38813e-21)
(0.000471524 0.00520269 3.38813e-21)
(0.000425852 0.00431165 -3.38813e-21)
(0.000222866 0.00283461 -1.57892e-20)
(0.000569583 0.000195346 0)
(0.000403239 0.00197974 -1.69407e-21)
(0.000465416 0.00464312 -5.0822e-21)
(0.000194373 0.00184268 -6.77626e-21)
(0.000556966 0.00336793 0)
(0.00052119 0.00461246 6.77626e-21)
(0.000382153 0.00496368 3.04932e-20)
(0.000314597 0.00514003 6.77626e-21)
(0.000293258 0.00474741 -1.69407e-20)
(0.00043965 0.00513625 2.71051e-20)
(0.000408864 0.0046667 -1.35525e-20)
(0.000317099 0.00497171 2.5411e-20)
(0.000519602 0.0019872 0)
(0.000383487 0.00182332 -3.81165e-21)
(0.000272061 0.00366963 -2.1017e-20)
(0.000300042 0.00491295 -5.42101e-20)
(0.000219521 0.00428219 3.72694e-20)
(0.000180583 0.00271842 -1.35525e-20)
(0.000253006 0.0043011 0)
(0.000426127 0.00446783 0)
(0.000402659 0.00319375 0)
(0.000445045 0.00360577 -1.01644e-20)
(0.000495618 0.00516909 1.35525e-20)
(0.000315331 0.000907807 0)
(0.000264627 0.00439158 -2.87991e-20)
(0.000233719 0.00430528 -6.77626e-21)
(0.00039074 0.0050875 -5.0822e-21)
(0.00045138 0.00305237 6.77626e-21)
(0.00028429 0.00362345 0)
(0.000117747 0.00348887 -4.65868e-21)
(0.000118112 0.00507984 -2.5411e-21)
(0.000437681 0.00109922 0)
(0.000482966 0.00255825 -1.69407e-21)
(0.000498998 0.00427584 0)
(0.000291268 0.00260617 1.35525e-20)
(0.000207605 0.00232841 3.38813e-21)
(0.000291101 0.00222513 6.77626e-21)
(0.000212693 0.00524264 -6.77626e-21)
(0.000364688 0.00305687 6.77626e-21)
(0.000243737 0.00521093 0)
(0.000333002 0.00348319 3.38813e-21)
(0.000334816 0.00479647 -6.77626e-21)
(0.000514777 0.00154978 -1.69407e-21)
(0.000566189 0.00507673 -8.47033e-22)
(0.000544252 0.00333069 7.6233e-21)
(0.000445272 0.00264389 0)
(0.000301963 0.00385108 0)
(0.000155496 0.00144906 -2.5411e-21)
(0.000409189 0.00478696 0)
(0.000325046 0.00445282 -2.03288e-20)
(0.00048385 0.00410936 -2.03288e-20)
(0.000273746 0.00162505 1.69407e-21)
(0.000181144 0.00256179 3.38813e-21)
(0.000379206 0.00263387 -1.10114e-20)
(0.00031312 0.000899723 -1.69407e-21)
(0.000497471 0.00339804 -6.77626e-21)
(0.000185642 0.00368063 -5.92923e-21)
(0.000180305 0.00295991 6.77626e-21)
(0.00033264 0.00261606 -6.77626e-21)
(0.000444915 0.00468404 -1.35525e-20)
(0.000560542 0.0049451 6.77626e-21)
(0.000514125 0.00367505 -6.98802e-21)
(0.000183961 0.00469714 -1.35525e-20)
(0.000366818 0.00518771 0)
(0.000328624 0.0048619 -5.0822e-21)
(0.000516137 0.00398925 0)
(0.000471463 0.00396806 -1.01644e-20)
(0.000518976 0.0021816 -3.17637e-22)
(0.000392741 0.00479492 6.77626e-21)
(0.000447834 0.00328254 0)
(0.000557001 0.000885908 -1.27055e-21)
(0.000148848 0.00374195 0)
(0.000351128 0.00434747 -6.77626e-21)
(0.000284199 0.00448055 -2.03288e-20)
(0.000458894 0.00453291 -2.71051e-20)
(0.000294522 0.00198727 0)
(0.000146808 0.00440484 -2.03288e-20)
(0.000230714 0.000944281 3.38813e-21)
(0.000258503 0.00388972 1.35525e-20)
(0.000317171 0.00372673 -1.69407e-20)
(0.000391495 0.00381135 -5.0822e-21)
(0.000514389 0.00227576 -1.69407e-21)
(0.000447579 0.00407206 0)
(0.000306221 0.00321712 -1.35525e-20)
(0.000368497 0.00493237 -1.35525e-20)
(0.000394675 0.004997 1.01644e-20)
(0.000517473 0.00221122 3.38813e-21)
(0.000302847 0.0026168 0)
(0.000305789 0.00460827 -1.60936e-20)
(0.000145476 0.00230297 -3.38813e-21)
(0.000409907 0.00341639 0)
(0.000568507 0.00514601 1.35525e-20)
(0.000144791 0.00398461 -6.77626e-21)
(0.000342915 0.0042095 0)
(0.000518707 0.00503141 6.77626e-21)
(0.000141583 0.00391466 6.77626e-21)
(0.000436225 0.00388296 6.77626e-21)
(0.000340956 0.00473821 0)
(0.000185646 0.00445706 -2.71051e-20)
(0.000154618 0.00500534 1.35525e-20)
(0.000390022 0.00514734 1.35525e-20)
(0.00056682 0.00509825 -3.38813e-21)
(0.000155674 0.00308697 2.03288e-20)
(0.000425143 0.00375332 0)
(0.000299453 0.00486575 5.0822e-21)
(0.000222562 0.00452092 -1.73642e-20)
(0.000474298 0.000848566 0)
(0.000329135 0.0027213 -6.77626e-21)
(0.000565971 0.0019717 1.69407e-21)
(0.000523643 0.00363116 -1.01644e-20)
(0.000193948 0.00355142 1.69407e-21)
(0.0002591 0.00134091 -6.77626e-21)
(0.000194667 0.00256681 3.38813e-21)
(0.000173808 0.00276853 -1.35525e-20)
(0.000514904 0.00138957 -5.0822e-21)
(0.000289024 0.004028 2.5411e-21)
(0.000507523 0.000733032 0)
(0.000534922 0.0047688 0)
(0.000177885 0.00360779 -2.71051e-20)
(0.000196503 0.0037991 0)
(0.000475028 0.00207057 -1.69407e-21)
(0.000505271 0.00397026 -3.38813e-21)
(0.000169198 0.00177509 0)
(0.000335984 0.00252824 -5.0822e-21)
(0.000500931 0.00278344 0)
(0.000504171 0.0027888 -3.38813e-21)
(0.000247715 0.0045053 -1.35525e-20)
(0.000297493 0.00512692 2.71051e-20)
(0.000559973 0.00387691 0)
)


// ************************************************************************* //
