/*--------------------------------*- C++ -*----------------------------------*\
  =========                 |
  \\      /  F ield         | OpenFOAM: The Open Source CFD Toolbox
   \\    /   O peration     | Website:  https://openfoam.org
    \\  /    A nd           | Version:  6
     \\/     M anipulation  |
\*---------------------------------------------------------------------------*/
FoamFile
{
    version     2.0;
    format      ascii;
    class       Cloud<passiveParticle>;
    location    "0.1/lagrangian/sprayCloud";
    object      positions;
}
// * * * * * * * * * * * * * * * * * * * * * * * * * * * * * * * * * * * * * //

572
(
(0.0226335 0.222105 0.488295 0.266966) 3071 6113 2
(0.10743 0.446352 0.0605038 0.385714) 2770 5514 1
(0.644486 0.133669 0.0475453 0.1743) 2371 4719 1
(0.471758 0.132124 0.259511 0.136607) 3272 6510 1
(0.797399 0.10696 0.00569712 0.0899434) 1971 3921 2
(0.197389 0.400831 0.0265128 0.375268) 1574 3134 1
(0.210425 0.119916 0.394989 0.274669) 2670 5315 2
(0.285102 0.354266 0.0216645 0.338967) 770 1533 1
(0.385784 0.182004 0.123536 0.308675) 774 1343 2
(0.512974 0.244324 0.0049105 0.237792) 1870 3722 2
(0.34386 0.372536 0.268357 0.0152466) 272 542 2
(0.900846 0.0141968 0.0355351 0.0494216) 2169 4317 1
(0.318808 0.0815786 0.258819 0.340795) 2170 4121 2
(0.316822 0.21403 0.125867 0.343282) 1769 3323 2
(0.322899 0.347282 0.0127432 0.317076) 2365 4705 2
(0.214876 0.392549 0.316788 0.0757877) 1768 3321 1
(0.283803 0.154253 0.354704 0.207239) 2469 4912 1
(0.352725 0.327824 0.154556 0.164896) 2569 5111 2
(0.0753362 0.0407447 0.455208 0.428711) 370 738 2
(0.500135 0.196519 0.0648589 0.238487) 863 1718 1
(0.335826 0.610897 0.0506606 0.00261681) 70 25130 2
(0.0250077 0.491004 0.403229 0.0807593) 770 1335 1
(0.518291 0.240915 0.00849411 0.2323) 1069 2129 1
(0.561632 0.219038 0.0173385 0.201991) 968 1927 2
(0.194128 0.411149 0.303443 0.0912802) 2363 4703 2
(0.619125 0.190194 0.173999 0.0166818) 769 1532 1
(0.396367 0.309306 0.116211 0.178116) 3062 6092 2
(0.628577 0.18863 0.134971 0.0478224) 868 1726 2
(0.340194 0.115729 0.218147 0.325929) 1468 2922 1
(0.205141 0.405424 0.182814 0.20662) 3061 6092 2
(0.312379 0.171709 0.328785 0.187127) 468 930 1
(0.872535 0.0639216 0.00103128 0.0625117) 2661 5296 1
(0.034636 0.492622 0.432341 0.0404005) 2761 5495 2
(0.500322 0.250005 0.0412098 0.208462) 1167 2125 1
(0.112204 0.434751 0.443123 0.00992174) 1266 2521 2
(0.544621 0.137854 0.0900723 0.227453) 2064 3910 2
(0.0872525 0.46412 0.162668 0.285959) 1166 2321 2
(0.834191 0.083323 0.0105919 0.0718941) 1764 3511 2
(0.125795 0.436749 0.0947726 0.342683) 1764 3313 1
(0.401985 0.310072 0.276036 0.0119069) 1562 3109 2
(0.619952 0.189901 0.189443 0.000704817) 1863 3706 2
(0.212705 0.393515 0.0736954 0.320085) 1764 3313 1
(0.268839 0.372214 0.0721373 0.28681) 1264 2514 2
(0.653846 0.144721 0.169832 0.0316011) 2561 5095 1
(0.358545 0.320407 0.126968 0.194081) 965 1922 1
(0.00176812 0.50012 0.11242 0.385693) 764 1323 1
(0.542782 0.228484 0.152858 0.0758764) 3356 6680 1
(0.169447 0.432889 0.324347 0.0733177) 1161 2311 2
(0.367836 0.168034 0.151298 0.312832) 2760 5493 1
(0.766642 0.0777338 0.0378077 0.117816) 762 1319 2
(0.33694 0.241329 0.0909277 0.330803) 2558 4893 2
(0.0845104 0.302203 0.155427 0.45786) 964 1721 2
(0.108676 0.4451 0.00249931 0.443725) 2259 4496 2
(0.083997 0.371438 0.458389 0.0861759) 1861 3705 2
(0.061293 0.422251 0.469601 0.0468552) 1362 2712 2
(0.970677 0.00522009 0.0101118 0.013991) 1061 2112 1
(0.17468 0.412545 0.147502 0.265273) 1561 3108 1
(0.0510355 0.405559 0.0681202 0.475285) 1661 3108 2
(0.641213 0.12838 0.0558368 0.17457) 1261 2510 1
(0.412586 0.293644 0.154451 0.13932) 2959 5691 1
(0.67179 0.100601 0.0673369 0.160273) 1262 2512 1
(0.35631 0.330035 0.261153 0.0525023) 1758 3499 2
(0.00715381 0.250356 0.488479 0.254012) 1660 3302 1
(0.299599 0.0505784 0.343318 0.306504) 761 1513 1
(0.874265 0.0267092 0.0619937 0.0370324) 1660 3302 1
(0.430518 0.236884 0.0610165 0.271582) 860 1712 1
(0.886642 0.0574611 0.0355619 0.0203354) 1560 3103 2
(0.129795 0.0359076 0.4004 0.433898) 2158 4295 1
(0.0489822 0.474835 0.0381713 0.438012) 861 1516 1
(0.769335 0.0479658 0.114567 0.0681322) 2158 4296 2
(0.0557998 0.474473 0.450302 0.0194254) 1558 2903 1
(0.119138 0.122165 0.440191 0.318506) 2855 5683 2
(0.0419798 0.484487 0.322637 0.150897) 1459 2902 2
(0.770058 0.117018 0.0792286 0.0336949) 1956 3894 1
(0.315637 0.234666 0.342949 0.106748) 1957 3896 2
(0.579249 0.0790771 0.131567 0.210107) 1558 2903 2
(0.180871 0.420216 0.117257 0.281655) 1757 3495 2
(0.110387 0.445261 0.372851 0.0715017) 1657 3299 1
(0.235434 0.382678 0.263337 0.11855) 1357 2503 1
(0.528972 0.164968 0.080203 0.225857) 957 1905 1
(0.285257 0.357372 0.073697 0.283674) 1557 3100 1
(0.651349 0.0931974 0.16812 0.087334) 657 1306 1
(0.821913 0.0891295 0.0533166 0.0356409) 2354 4487 1
(0.424958 0.207785 0.287455 0.0798015) 1756 3496 2
(0.19889 0.408622 0.192097 0.200391) 1257 2500 2
(0.422003 0.00627436 0.282637 0.289086) 956 1705 2
(0.607729 0.0297907 0.193828 0.168653) 2154 4285 1
(0.223294 0.382319 0.388245 0.0061427) 1755 3494 2
(0.0592388 0.470398 0.201572 0.268791) 1656 3297 1
(0.65478 0.0151877 0.172771 0.15726) 1255 2499 2
(0.381404 0.188694 0.309165 0.120736) 1056 2103 2
(0.356028 0.275202 0.0560165 0.312754) 1455 2896 1
(0.0818077 0.471815 0.316393 0.129985) 1753 3489 2
(0.419967 0.290705 0.149046 0.140283) 2253 4286 1
(0.430914 0.0957391 0.28468 0.188667) 1954 3890 2
(0.372385 0.195113 0.121236 0.311265) 1254 2298 2
(0.662539 0.168445 0.0330064 0.13601) 1354 2696 1
(0.00858133 0.495717 0.459239 0.0364623) 2153 4087 1
(0.526637 0.0720941 0.166673 0.234597) 1353 2693 1
(0.342057 0.337812 0.139461 0.18067) 1054 2096 2
(0.180414 0.0575214 0.406575 0.355489) 854 1698 1
(0.781905 0.108858 0.072628 0.036609) 1653 3291 1
(0.356642 0.207427 0.11423 0.3217) 1653 3092 2
(0.284301 0.358665 0.202255 0.15478) 1952 3886 1
(0.900777 0.0242841 0.0498292 0.0251099) 1852 3684 1
(0.354114 0.157794 0.174938 0.313154) 752 1497 1
(0.0475938 0.115839 0.476386 0.360181) 652 1299 2
(0.295304 0.365036 0.0363554 0.303305) 1652 3286 2
(0.830326 0.0305126 0.0539259 0.0852356) 352 503 2
(0.762521 1.01414e-05 0.118793 0.118677) 1152 2293 1
(0.725721 0.137509 0.0536693 0.0831007) 352 702 1
(0.470765 0.265007 0.217047 0.0471801) 552 901 1
(0.847023 0.0286794 0.0478957 0.0764022) 1951 3685 2
(0.409239 0.298475 0.105938 0.186348) 1851 3684 2
(0.21683 0.396545 0.116502 0.270124) 1651 3286 2
(0.192836 0.403764 0.231504 0.171895) 1151 2093 1
(0.47841 0.268361 0.0537239 0.199505) 1751 3483 2
(0.445813 0.280974 0.117537 0.155675) 2150 4279 2
(0.0464059 0.0324071 0.476505 0.444682) 1950 3882 2
(0.679765 0.0081915 0.151672 0.160372) 2250 4280 2
(0.723397 0.0890092 0.0905565 0.0970371) 50 98 1
(0.0262005 0.485452 0.171962 0.316385) 2150 4081 1
(0.140296 0.429846 0.194243 0.235616) 2350 4479 1
(0.227953 0.391802 0.371739 0.00850553) 1250 2486 1
(0.191663 0.416791 0.12219 0.269355) 1150 2287 2
(0.170175 0.419174 0.26717 0.143481) 2099 4176 2
(0.77018 0.118959 0.00647967 0.104381) 3099 6166 2
(0.428294 0.00401527 0.282025 0.285666) 998 1985 1
(0.0449528 0.10145 0.376044 0.477553) 2097 3976 2
(0.327979 0.0899062 0.239612 0.342502) 1197 2185 2
(0.195119 0.474442 0.255228 0.0752112) 298 594 2
(0.306391 0.271285 0.0752872 0.347037) 2698 5172 2
(0.381088 0.311986 0.240194 0.0667317) 3295 6556 2
(0.143311 0.1952 0.233145 0.428343) 3292 6354 2
(0.286174 0.35636 0.14588 0.211586) 3092 5956 1
(0.27528 0.26508 0.0965314 0.363108) 792 1379 2
(0.175247 0.0553988 0.359887 0.409467) 593 983 2
(0.105409 0.447701 0.323063 0.123826) 1893 3570 1
(0.495322 0.256423 0.207376 0.0408781) 292 583 1
(0.503449 0.249914 0.0404922 0.206144) 1992 3767 1
(0.26938 0.365572 0.230878 0.13417) 1792 3369 1
(0.430026 0.0145648 0.270715 0.284694) 2488 4952 1
(0.470678 0.188776 0.0747486 0.265798) 293 386 2
(0.433515 0.280419 0.0361181 0.249948) 388 773 1
(0.0931166 0.454054 0.373904 0.0789247) 1994 3771 1
(0.142185 0.428844 0.200625 0.228346) 3090 6151 1
(0.374655 0.325463 0.277622 0.0222595) 1591 3167 2
(0.578029 0.154129 0.0622961 0.205546) 1991 3963 1
(0.0646599 0.336206 0.137938 0.461197) 2990 5951 1
(0.97876 0.0100064 0.0102701 0.000963255) 1290 2566 2
(0.321154 0.339364 0.0108367 0.328646) 3089 6148 2
(0.384636 0.213944 0.0937521 0.307667) 1490 2768 2
(0.0171497 0.0614722 0.432365 0.489013) 3684 7332 1
(0.452697 0.196426 0.267987 0.0828903) 1191 2369 1
(0.279089 0.370336 0.127663 0.222912) 3186 6339 2
(0.825665 0.00257202 0.0873245 0.0844389) 2388 4754 2
(0.072047 0.324174 0.464981 0.138798) 1288 2565 2
(0.407311 0.171123 0.221533 0.200032) 88 176 1
(0.249595 0.29499 0.375216 0.0801987) 3285 6539 2
(0.24322 0.384772 0.153449 0.218559) 3185 6339 2
(0.000379596 0.522246 0.00555299 0.471822) 88 17400 2
(0.262911 0.377703 0.170884 0.188502) 1089 2168 2
(0.177314 0.413254 0.308455 0.100977) 2587 5147 2
(0.0556864 0.472494 0.193935 0.277884) 2786 5347 1
(0.217676 0.391882 0.339437 0.0510053) 1789 3562 1
(0.0772435 0.113938 0.347305 0.461514) 1290 2370 2
(0.214997 0.164452 0.392476 0.228075) 2783 5540 2
(0.206436 0.397221 0.208392 0.187951) 3185 6340 1
(0.156726 0.422427 0.262427 0.15842) 3086 5944 1
(0.439349 0.279559 0.208105 0.0729871) 2087 3956 1
(0.0490231 0.486342 0.204882 0.259753) 1589 3161 2
(0.787844 0.0997572 0.0514893 0.0609096) 687 1369 1
(0.0988524 0.184895 0.442372 0.273881) 1789 3559 1
(0.213087 0.400104 0.237183 0.149626) 1986 3953 2
(0.138477 0.275897 0.154744 0.430881) 2984 5741 2
(0.356397 0.309289 0.322143 0.0121698) 3184 6338 2
(0.573016 0.0813917 0.213221 0.132371) 3284 6537 2
(0.37875 0.0591304 0.310743 0.251377) 2286 4548 1
(0.587178 0.207989 0.149566 0.0552678) 2088 4154 2
(0.298371 0.354774 0.214642 0.132214) 2284 4544 2
(0.336469 0.0117132 0.320028 0.331789) 3778 7321 2
(0.160797 0.0353364 0.4179 0.385967) 1386 2757 1
(0.067971 0.465761 0.0973588 0.368909) 3680 7126 1
(0.311391 0.0934138 0.254089 0.341107) 1585 3155 1
(0.663548 0.137444 0.0356093 0.163399) 1385 2757 1
(0.269471 0.367634 0.0835163 0.279379) 2484 4944 2
(0.237041 0.381615 0.221407 0.159937) 1683 3152 1
(0.0322562 0.490607 0.252194 0.224943) 2281 4540 2
(0.0396368 0.137766 0.342544 0.480053) 1383 2555 2
(0.44806 0.276696 0.187727 0.0875176) 1883 3550 1
(0.538154 0.231929 0.173266 0.0566506) 2481 4936 2
(0.572996 0.215562 0.094702 0.11674) 2682 5338 2
(0.00578777 0.15075 0.486011 0.357451) 785 1561 1
(0.610128 0.0806102 0.114233 0.195029) 3678 7122 2
(0.0591663 0.470301 0.27978 0.190753) 2082 3946 1
(0.00578458 0.499759 0.0682197 0.426237) 2180 4339 2
(0.354065 0.256021 0.314035 0.0758792) 1782 3545 1
(0.208946 0.388009 0.1321 0.270944) 284 368 1
(0.596212 0.206077 0.130593 0.0671175) 884 1758 2
(0.273755 0.156022 0.358969 0.211253) 2382 4739 1
(0.439976 0.280149 0.0222463 0.257629) 1982 3747 1
(0.147432 0.425373 0.352208 0.074986) 483 963 1
(0.372821 0.00648557 0.313329 0.307365) 2181 4342 2
(0.344527 0.0360379 0.291911 0.327524) 481 958 1
(0.147882 0.43282 0.17877 0.240528) 3379 6725 2
(0.134822 0.413657 0.0184427 0.433078) 2281 4342 2
(0.899031 0.0361096 0.0507895 0.0140702) 1979 3940 2
(0.184056 0.324343 0.083515 0.408087) 1680 3146 2
(0.0160195 0.33366 0.185613 0.464708) 581 1157 1
(0.873862 0.0640752 0.0353633 0.0266993) 881 1755 1
(0.786498 0.110567 0.0110706 0.091864) 1281 2548 2
(0.312297 0.243989 0.11421 0.329504) 880 1752 1
(0.276592 0.0628748 0.355494 0.30504) 679 1350 1
(0.767763 0.06726 0.114039 0.0509381) 1879 3738 1
(0.397653 0.309532 0.142914 0.149901) 880 1750 2
(0.00836268 0.496207 0.189709 0.305721) 1579 2945 1
(0.202349 0.409244 0.228254 0.160153) 1278 2544 2
(0.276352 0.194928 0.165977 0.362743) 1478 2744 2
(0.432029 0.181953 0.284042 0.101976) 779 1552 2
(0.752764 0.125123 0.0659605 0.0561526) 977 1945 2
(0.674957 0.16161 0.0234339 0.139999) 279 358 1
(0.526205 0.237375 0.104165 0.132255) 1079 1950 1
(0.205573 0.390124 0.389047 0.0152567) 2977 5923 1
(0.183586 0.427632 0.0868215 0.30196) 878 1746 2
(0.0578314 0.48255 0.212921 0.246697) 1577 3137 2
(0.652138 0.179219 0.0460887 0.122554) 976 1941 2
(0.325133 0.337479 0.231261 0.106128) 1976 3735 1
(0.0802883 0.270979 0.451258 0.197474) 1976 3931 1
(0.276958 0.0547505 0.317024 0.351267) 275 548 1
(0.28764 0.322424 0.356173 0.0337641) 4091 8143 2
(0.0741279 0.0279276 0.436264 0.461681) 3049 6068 1
(0.200036 0.405799 0.110185 0.283981) 2348 4673 2
(0.592864 0.205374 0.125884 0.0758783) 2749 5469 2
(0.301976 0.327566 0.0329236 0.337534) 1948 3877 1
(0.228669 0.283978 0.108544 0.378809) 2449 4874 1
(0.0445471 0.126159 0.354335 0.47496) 2547 5069 1
(0.577775 0.0312573 0.209149 0.181819) 1449 2882 1
(0.761213 0.121627 0.00190692 0.115253) 1449 2884 1
(0.174545 0.399069 0.0139761 0.41241) 1549 2885 2
(0.0081014 0.381914 0.496981 0.113004) 2145 4270 2
(0.20274 0.361285 0.0466866 0.389288) 2346 4669 1
(0.0238409 0.272163 0.239329 0.464667) 549 1093 1
(0.228148 0.341544 0.0572231 0.373085) 1846 3674 1
(0.285325 0.140186 0.220319 0.35417) 2941 5853 1
(0.370054 0.293039 0.31433 0.022577) 2343 4664 2
(0.245056 0.381964 0.0702258 0.302754) 1546 3077 2
(0.345242 0.327216 0.130101 0.197441) 1048 2087 1
(0.345915 0.327943 0.0503213 0.275821) 2644 5262 2
(0.108492 0.462185 0.00445516 0.424867) 1247 2480 2
(0.570925 0.210194 0.214713 0.00416888) 3138 6246 2
(0.686968 0.156532 0.0175165 0.138984) 3041 6053 1
(0.255114 0.376786 0.24311 0.12499) 1845 3670 2
(0.0161561 0.491834 0.345012 0.146998) 2942 5657 1
(0.357694 0.281699 0.32174 0.0388673) 2444 4865 2
(0.852585 0.000975132 0.07289 0.0735503) 646 1287 2
(0.410796 0.294535 0.0870191 0.20765) 2046 3874 1
(0.154522 0.423926 0.0152823 0.40627) 1844 3671 1
(0.530704 0.234552 0.0782821 0.156462) 1943 3868 1
(0.0477416 0.4835 0.191757 0.277002) 1344 2675 2
(0.436993 0.284686 0.0771838 0.201137) 1344 2675 2
(0.350485 0.285873 0.0385824 0.32506) 1244 2278 2
(0.0481565 0.491011 0.417716 0.0431166) 1844 3670 2
(0.0502361 0.474713 0.113798 0.361253) 1544 2875 1
(0.0899857 0.455232 0.417905 0.0368778) 2443 4664 1
(0.247016 0.382413 0.182304 0.188267) 2042 4062 2
(0.175972 0.412002 0.149278 0.262749) 1743 3271 1
(0.358762 0.168511 0.158316 0.314411) 1642 3268 1
(0.0727833 0.47248 0.218867 0.235869) 3137 6243 2
(0.0840839 0.457798 0.0994631 0.358655) 2343 4465 1
(0.643031 0.143472 0.178179 0.0353188) 2840 5653 2
(0.565307 0.106133 0.218402 0.110158) 1542 3070 2
(0.135478 0.184704 0.251908 0.427909) 2441 4858 1
(0.0227835 0.134309 0.485973 0.356934) 1940 3862 2
(0.0332099 0.484592 0.429631 0.0525677) 2141 4259 2
(0.047121 0.486752 0.21893 0.247196) 1642 3266 2
(0.389884 0.117748 0.305736 0.186632) 2139 4258 2
(0.0488627 0.484018 0.267945 0.199175) 3038 6044 2
(0.475806 0.235884 0.0349052 0.253405) 1641 3266 1
(0.0834766 0.458165 0.370877 0.087481) 2141 4262 1
(0.230549 0.0389491 0.384887 0.345615) 1841 3665 2
(0.672985 0.0777399 0.0883818 0.160894) 1841 3664 1
(0.560026 0.210936 0.211969 0.0170685) 1640 3262 1
(0.00862847 0.495373 0.282226 0.213772) 542 1080 1
(0.236871 0.336346 0.0534407 0.373343) 2537 5049 1
(0.361549 0.32553 0.056436 0.256485) 2439 4852 2
(0.473609 0.248471 0.253752 0.0241671) 1241 2468 1
(0.272619 0.365371 0.36024 0.0017703) 2637 5050 1
(0.630695 0.0854407 0.181608 0.102256) 1739 3459 1
(0.184098 0.409388 0.0413034 0.36521) 2936 5843 2
(0.19304 0.403535 0.226853 0.176572) 1539 3064 1
(0.556983 0.227243 0.120852 0.094922) 1039 2068 2
(0.0215385 0.276431 0.223882 0.478149) 1638 3260 1
(0.00633856 0.496947 0.102445 0.394269) 2439 4656 1
(0.519751 0.239893 0.238754 0.00160223) 1240 2469 1
(0.359487 0.262574 0.312542 0.0653972) 2337 4649 1
(0.662218 0.172175 0.127965 0.037642) 640 1272 2
(0.767364 0.115936 0.00348345 0.113216) 2637 5050 1
(0.0828674 0.458563 0.023253 0.435317) 1739 3462 1
(0.321016 0.339569 0.0263031 0.313112) 839 1472 1
(0.499151 0.25065 0.233772 0.0164276) 3033 6037 1
(0.231353 0.238446 0.205373 0.324828) 139 277 1
(0.00772294 0.495948 0.127201 0.369128) 2037 3856 1
(0.498842 0.1069 0.250864 0.143394) 439 875 2
(0.298649 0.358574 0.160254 0.182523) 3034 6036 2
(0.254117 0.376454 0.0919295 0.277499) 1338 2663 2
(0.0825687 0.280655 0.187694 0.449082) 1437 2860 1
(0.627992 0.186397 0.174671 0.0109406) 1438 2860 2
(0.158643 0.422719 0.376192 0.0424469) 3034 6036 2
(0.414715 0.245048 0.282701 0.057536) 1138 2263 1
(0.761956 0.120576 0.0688728 0.0485956) 2136 4249 2
(0.40077 0.306556 0.190075 0.102598) 1437 2860 2
(0.419161 0.237768 0.063306 0.279766) 1037 2064 1
(0.228971 0.000501156 0.384938 0.385589) 1836 3456 2
(0.764841 0.0116375 0.117598 0.105924) 1437 2861 2
(0.518897 0.125258 0.131178 0.224667) 337 671 1
(0.234699 0.386921 0.2104 0.167979) 2435 4844 2
(0.128329 0.43603 0.286888 0.148753) 1536 2859 1
(0.491264 0.137265 0.248815 0.122656) 1536 3055 1
(0.633447 0.166882 0.0164275 0.183244) 2535 4847 2
(0.0271692 0.396375 0.469839 0.106618) 1536 3055 1
(0.000581868 0.0872335 0.495728 0.416457) 1036 2060 1
(0.690774 0.154464 0.139616 0.0151452) 836 1466 1
(0.578236 0.22127 0.0586286 0.141866) 335 667 2
(0.693646 0.112093 0.0437146 0.150546) 2931 5833 1
(0.312855 0.350038 0.190887 0.146221) 1934 3849 2
(0.271575 0.364261 0.186733 0.177431) 735 1464 1
(0.137521 0.285358 0.421033 0.156088) 1734 3449 1
(0.328697 0.335821 0.0120785 0.323404) 1833 3648 2
(0.710323 0.0223255 0.144259 0.123093) 1734 3449 1
(0.937538 0.00173404 0.0312097 0.0295178) 1434 2855 2
(0.503918 0.00820731 0.247364 0.24051) 934 1857 1
(0.594804 0.184915 0.196248 0.0240335) 1833 3646 1
(0.0830161 0.458903 0.266041 0.19204) 933 1858 1
(0.667592 0.166115 0.15987 0.00642298) 1333 2455 1
(0.638452 0.106916 0.0739111 0.180721) 2332 4443 2
(0.0973564 0.451331 0.298807 0.152506) 2132 4244 1
(0.498549 0.25444 0.107353 0.139659) 2332 4639 2
(0.317008 0.350891 0.262244 0.0698577) 1432 2850 2
(0.181102 0.40948 0.361076 0.0483422) 1932 3647 1
(0.653147 0.17342 0.154217 0.0192162) 2530 4837 1
(0.718169 0.00498857 0.140903 0.13594) 1731 3443 1
(0.517097 0.241742 0.230283 0.0108777) 1531 2849 1
(0.209211 0.39551 0.381718 0.0135616) 2828 5430 1
(0.645309 0.179266 0.0950035 0.0804216) 2629 5232 2
(0.887449 0.044846 0.0563534 0.011352) 1830 3643 2
(0.369761 0.227502 0.0962119 0.306525) 1230 2448 1
(0.198108 0.0403579 0.398703 0.36283) 1730 3441 1
(0.722335 0.0707353 0.0727253 0.134205) 730 1453 1
(0.156361 0.258944 0.170741 0.413954) 1929 3839 1
(0.345534 0.327275 0.242666 0.0845253) 1530 3046 1
(0.127848 0.603689 0.133992 0.134471) 30 58 1
(0.103763 0.449243 0.138785 0.308209) 2428 4833 1
(0.394081 0.306925 0.0889076 0.210087) 1129 2247 2
(0.711386 0.0781438 0.144382 0.0660875) 2628 5231 2
(0.619858 0.111438 0.0809549 0.187749) 2528 5031 1
(0.0308528 0.124894 0.484592 0.359661) 2328 4634 2
(0.0333605 0.418127 0.0808499 0.467663) 1228 2444 1
(0.081919 0.458966 0.288538 0.170577) 2628 5032 1
(0.153936 0.423037 0.124257 0.298769) 2528 4833 1
(0.0965345 0.22716 0.451863 0.224443) 628 1251 2
(0.562695 0.219945 0.0288019 0.188558) 828 1649 1
(0.397641 0.0896421 0.297824 0.214893) 1628 3238 1
(0.387551 0.306361 0.0301712 0.275916) 1728 3241 1
(0.366461 0.316382 0.250945 0.0662128) 2727 5428 1
(0.837272 0.0287268 0.0803847 0.0536162) 2127 4231 1
(0.0661511 0.388504 0.456925 0.0884202) 2227 4430 1
(0.126551 0.446755 0.123363 0.303331) 1927 3833 2
(0.175597 0.24723 0.404347 0.172826) 1927 3833 1
(0.0099866 0.504513 0.269823 0.215678) 1426 2838 2
(0.383583 0.317746 0.207089 0.0915826) 1126 2241 2
(0.293669 0.182396 0.169453 0.354481) 1626 3038 2
(0.369725 0.315204 0.125726 0.189345) 2626 5028 1
(0.0975491 0.457132 0.306094 0.139224) 2326 4627 2
(0.22087 0.389484 0.363805 0.025841) 1526 3038 1
(0.0638894 0.408632 0.435555 0.0919238) 626 1244 1
(0.0421785 0.510143 0.190955 0.256723) 325 647 2
(0.215577 0.00375195 0.388119 0.392552) 1125 2239 1
(0.350654 0.0374539 0.289116 0.322776) 825 1642 1
(0.61021 0.100433 0.0979226 0.191435) 2025 4030 1
(0.253988 0.29206 0.0811172 0.372835) 1525 2837 2
(0.64736 0.176796 0.160743 0.0151006) 2125 4227 2
(0.116009 0.441937 0.276304 0.16575) 925 1643 1
(0.427363 0.210717 0.278632 0.0832869) 1625 3232 1
(0.360447 0.322632 0.217047 0.099873) 2225 4426 2
(0.24265 0.39271 0.0325652 0.332075) 1225 2436 2
(0.430612 0.210801 0.0728071 0.28578) 2824 5422 2
(0.168674 0.415878 0.390827 0.0246212) 2822 5617 1
(0.538058 0.181267 0.231031 0.0496435) 1624 3233 2
(0.28658 0.357585 0.100478 0.255357) 1724 3233 1
(0.570652 0.214234 0.00962538 0.205489) 2423 4822 2
(0.56744 0.113222 0.21312 0.106219) 2124 4225 1
(0.147663 0.426407 0.00138486 0.424545) 1824 3631 1
(0.183801 0.0942634 0.407301 0.314634) 2222 4423 2
(0.0738328 0.472087 0.0107035 0.443377) 1524 3033 1
(0.160881 0.198835 0.227507 0.412777) 1823 3628 1
(0.679518 0.00447395 0.154616 0.161393) 824 1442 2
(0.201963 0.365954 0.39898 0.0331025) 1523 3032 2
(0.181164 0.0657043 0.343396 0.409736) 523 843 2
(0.788143 0.00768617 0.10548 0.0986917) 1822 3624 1
(0.804398 0.0978896 0.0130022 0.08471) 2120 4220 1
(0.0611521 0.089502 0.380246 0.4691) 1422 2632 2
(0.0628016 0.105504 0.467506 0.364188) 1222 2433 2
(0.358989 0.320876 0.0580685 0.262066) 1921 3625 1
(0.11283 0.443823 0.403295 0.0400524) 723 1440 1
(0.534952 0.035496 0.198528 0.231023) 1122 2233 1
(0.787126 0.106526 0.0896747 0.0166726) 1821 3625 1
(0.609317 0.207649 0.122512 0.0605215) 522 1039 2
(0.239219 0.392448 0.265346 0.102987) 1521 3027 2
(0.202171 0.287171 0.122205 0.388454) 1321 2629 1
(0.533722 0.23652 0.100025 0.129733) 2418 4812 2
(0.0418739 0.495365 0.222554 0.240207) 721 1435 2
(0.0873137 0.456291 0.128765 0.32763) 2319 4417 1
(0.369418 0.117141 0.198107 0.315334) 2118 4017 2
(0.294214 0.00188322 0.350859 0.353043) 1520 2827 2
(0.703192 0.0377685 0.14872 0.11032) 1520 3026 2
(0.196109 0.0318763 0.40082 0.371195) 1720 3421 1
(0.179606 0.0263607 0.410232 0.383801) 920 1832 2
(0.18572 0.407109 0.0638823 0.343288) 2317 4413 1
(0.111247 0.263335 0.444148 0.181269) 620 1235 2
(0.273981 0.362901 0.176843 0.186274) 920 1832 1
(0.0805646 0.463341 0.0937926 0.362302) 1319 2625 2
(0.246328 0.247177 0.138589 0.367906) 1718 3419 1
(0.599242 0.130108 0.200249 0.0704007) 1419 2825 2
(0.495045 0.253118 0.223095 0.028742) 2415 4804 2
(0.550494 0.224823 0.0082788 0.216404) 2316 4610 1
(0.231641 0.399403 0.275782 0.0931742) 919 1829 2
(0.394426 0.0674624 0.300502 0.23761) 1119 2225 1
(0.609558 0.19527 0.0999618 0.0952099) 1618 3221 1
(0.186264 0.183309 0.230075 0.400352) 1318 2623 1
(0.119695 0.447531 0.244264 0.188509) 1718 3417 2
(0.426256 0.286966 0.202768 0.0840096) 219 437 1
(0.155288 0.158644 0.417806 0.268263) 2017 4012 1
(0.541536 0.163051 0.224446 0.0709668) 2116 4209 1
(0.00212959 0.498956 0.225039 0.273875) 1817 3617 1
(0.656402 0.17561 0.10429 0.0636981) 918 1825 2
(0.578321 0.21639 0.0888554 0.116434) 818 1628 2
(0.382559 0.0918668 0.219451 0.306123) 2115 4209 1
(0.592472 0.184713 0.19753 0.0252851) 1417 2818 1
(0.623146 0.191328 0.1171 0.068426) 1617 3216 2
(0.052227 0.473912 0.0730472 0.400814) 518 1032 1
(0.0900219 0.455547 0.0145907 0.439841) 2115 4209 2
(0.633712 0.188325 0.133931 0.0440317) 1317 2621 2
(0.242002 0.387119 0.129381 0.241498) 816 1624 2
(0.551998 0.225749 0.0251586 0.197095) 17 35 1
(0.469772 0.265107 0.0793986 0.185722) 517 1030 1
(0.143468 0.2036 0.232077 0.420855) 1715 3413 1
(0.309987 0.212079 0.150664 0.32727) 516 1027 1
(0.660366 0.169871 0.0235123 0.146251) 1016 2023 1
(0.377831 0.310896 0.107564 0.203708) 1715 3414 1
(0.552938 0.224994 0.0656948 0.156373) 2113 4205 2
(0.0882814 0.0132927 0.442583 0.455843) 2211 4202 2
(0.756451 0.125303 0.0764867 0.0417596) 1515 3015 2
(0.00296652 0.3051 0.202909 0.489024) 1913 3807 1
(0.538907 0.236822 0.045357 0.178914) 2113 4203 2
(0.473003 0.270243 0.0709589 0.185795) 1814 3608 2
(0.0499057 0.197313 0.458567 0.294214) 516 1025 1
(0.224011 0.402388 0.14465 0.228951) 515 1025 2
(0.0140782 0.493037 0.347396 0.145488) 1714 3213 1
(0.165097 0.358819 0.0715073 0.404577) 1713 3409 1
(0.289112 0.126301 0.229237 0.355349) 1414 2616 2
(0.0434789 0.244127 0.464164 0.248231) 815 1620 1
(0.404454 0.306082 0.216441 0.0730228) 1314 2615 2
(0.625749 0.187154 0.171513 0.0155848) 1414 2815 1
(0.0811833 0.46139 0.0185248 0.438902) 1113 2215 1
(0.863164 0.0683609 0.0596553 0.00881977) 1313 2415 1
(0.121263 0.41188 0.027449 0.439408) 1911 3605 2
(0.364926 0.317738 0.169735 0.1476) 314 427 1
(0.375651 0.300959 0.0110614 0.312328) 1413 2614 2
(0.369583 0.316764 0.272606 0.0410473) 1612 3206 2
(0.186766 0.409147 0.0576266 0.34646) 1612 3208 2
(0.764597 0.121445 0.0449325 0.0690257) 913 1815 2
(0.508708 0.21485 0.245809 0.0306332) 1013 2017 2
(0.0526245 0.110522 0.468669 0.368185) 1013 2014 1
(0.23293 0.0213249 0.362986 0.382759) 1710 3403 1
(0.281735 0.296819 0.0623597 0.359086) 313 425 2
(0.348666 0.338924 0.125226 0.187184) 713 1417 2
(0.514166 0.243384 0.0184287 0.224022) 1311 2609 2
(0.0205781 0.52116 0.0182242 0.440038) 713 1417 2
(0.241246 0.20199 0.191787 0.364977) 612 1218 1
(0.504936 0.143662 0.113744 0.237658) 612 1218 1
(0.102773 0.145199 0.44855 0.303477) 1610 3205 2
(0.0156582 0.092351 0.48634 0.405651) 812 1614 1
(0.339712 0.33625 0.178571 0.145467) 1611 3204 2
(0.620531 0.189539 0.0462152 0.143716) 1011 1814 1
(0.71963 0.0436 0.138722 0.0980478) 1411 2806 1
(0.0503233 0.515792 0.423489 0.0103949) 412 818 1
(0.70141 0.149304 0.0451232 0.104162) 1511 2809 1
(0.260714 0.353578 0.369811 0.0158968) 911 1814 2
(0.73987 0.0699777 0.0647169 0.125435) 711 1415 1
(0.00437531 0.35264 0.145012 0.497973) 1110 2011 2
(0.31885 0.340638 0.244578 0.0959338) 411 620 1
(0.365117 0.317518 0.145943 0.171421) 1410 2807 1
(0.227587 0.183 0.209847 0.379566) 1309 2605 1
(0.0256785 0.251098 0.246494 0.47673) 1110 2209 1
(0.197997 0.246817 0.17882 0.376366) 410 816 1
(0.567959 0.220515 0.0627024 0.148824) 710 1413 2
(0.648846 0.146967 0.0377186 0.166468) 710 1413 1
(0.783358 0.0600958 0.0582577 0.0982889) 210 418 1
(0.485595 0.0837096 0.174361 0.256335) 909 1611 2
(0.123283 0.347643 0.106445 0.42263) 1009 2008 1
(0.103553 0.46909 0.094238 0.333119) 810 1610 2
(0.0097559 0.510774 0.463235 0.0162349) 710 1411 1
(0.411591 0.29417 0.209641 0.0845975) 1309 2606 1
(0.0205372 0.0926427 0.401213 0.485607) 1507 2999 1
(0.849256 0.077955 0.0523059 0.0204827) 1009 2008 2
(0.218054 0.391127 0.175635 0.215184) 1408 2604 1
(0.842886 0.0819201 8.25019e-05 0.0751111) 1508 3001 1
(0.583667 0.208246 0.142653 0.0654348) 1408 2803 1
(0.0976553 0.467249 0.0811586 0.353937) 1109 2205 2
(0.466281 0.277098 0.02678 0.229841) 1108 2203 2
(0.197067 0.413031 0.138759 0.251144) 608 1210 2
(0.208299 0.395844 0.0626237 0.333234) 1308 2604 1
(0.732917 0.0359744 0.0977015 0.133407) 908 1609 2
(0.691367 0.10473 0.0670221 0.13688) 208 414 1
(0.628699 0.185661 0.182092 0.00354842) 1008 2007 1
(0.50758 0.255651 0.00992088 0.226848) 1208 2402 2
(0.0398169 0.0128307 0.467774 0.479579) 1207 2402 1
(0.232721 0.00748472 0.376227 0.383567) 1307 2403 2
(0.127478 0.202389 0.250765 0.419369) 507 1009 1
(0.501039 0.249505 0.0536183 0.195837) 1207 2403 1
(0.436663 0.0723394 0.221323 0.269675) 207 412 1
(0.372242 0.263258 0.0506005 0.3139) 1107 2005 2
(0.622003 0.188967 0.106781 0.0822495) 1007 2005 1
(0.0509068 0.474418 0.317386 0.157289) 1007 2005 1
(0.0756323 0.461603 0.217902 0.244863) 607 1209 1
(0.136472 0.220633 0.422528 0.220367) 1107 2201 1
(0.101533 0.460567 0.204424 0.233476) 906 1803 2
(0.418265 0.056574 0.234316 0.290844) 1406 2600 2
(0.626711 0.192909 0.00590978 0.17447) 1406 2796 2
(0.616525 0.195745 0.0482117 0.139519) 606 1206 2
(0.0347158 0.482687 0.0535923 0.429005) 706 1406 1
(0.149399 0.0571331 0.368824 0.424644) 1504 2795 2
(0.282366 0.241268 0.341596 0.13477) 606 1204 1
(0.23007 0.0707894 0.381416 0.317725) 906 1801 1
(0.600558 0.199682 0.0587443 0.141016) 1505 2797 1
(0.341665 0.342259 0.287122 0.0289548) 1105 2199 2
(0.281053 0.240322 0.119155 0.35947) 1205 2200 2
(0.0846478 0.462181 0.096305 0.356866) 1504 2993 2
(0.495269 0.255938 0.168394 0.0803983) 1105 2197 2
(0.369667 0.31686 0.273794 0.0396793) 1105 2197 2
(0.616237 0.198754 0.00397087 0.181038) 1404 2792 2
(0.315833 0.342192 0.226174 0.1158) 1304 2397 1
(0.900927 0.0485261 0.0495309 0.00101571) 1404 2795 2
(0.236039 0.326314 0.381925 0.0557222) 1503 2992 2
(0.500494 0.249763 0.234515 0.0152276) 1404 2795 1
(0.0649539 0.469653 0.0345537 0.430839) 903 1797 2
(0.40157 0.307488 0.18969 0.101252) 1103 2195 2
(0.319846 0.234387 0.332301 0.113467) 1403 2790 1
(0.140205 0.422788 0.00708792 0.429919) 1303 2395 2
(0.699847 0.0211951 0.148921 0.130037) 203 405 2
(0.140943 0.429618 0.254507 0.174933) 803 1400 1
(0.13718 0.431453 0.285706 0.145661) 603 1002 1
(0.330452 0.346684 0.0850995 0.237765) 1003 1994 2
(0.271112 0.286324 0.0911385 0.351426) 1002 1994 1
(0.331266 0.361813 0.220717 0.0862043) 402 800 2
(0.81665 0.0646083 0.0310248 0.0877165) 702 1397 1
(0.488602 0.217545 0.0383436 0.255509) 802 1398 2
(0.641733 0.0850843 0.179449 0.0937335) 402 801 2
(0.609095 0.0184119 0.194716 0.177777) 1102 2191 1
(0.233956 0.383875 0.117811 0.264358) 202 204 1
(0.0340086 0.0251611 0.483022 0.457809) 1301 2590 2
(0.166435 0.429299 0.250279 0.153987) 1001 1992 2
(0.238851 0.0956646 0.380575 0.28491) 1001 1993 2
(0.106294 0.209382 0.446878 0.237445) 501 998 2
(0.808696 0.0434197 0.0522808 0.0956038) 1101 1993 2
(0.16939 0.415307 0.117052 0.298252) 501 799 1
(0.0916261 0.472822 0.174316 0.261236) 701 1393 2
(0.0673483 0.0258367 0.466332 0.440483) 700 1394 2
(0.0439001 0.196874 0.478057 0.281169) 700 1394 2
(0.250631 0.374683 0.0597292 0.314957) 1200 2389 1
(0.589967 0.0587666 0.203058 0.148209) 1400 15979 2
(0.152045 0.423977 0.292571 0.131407) 1100 1991 1
)


// ************************************************************************* //
