/*--------------------------------*- C++ -*----------------------------------*\
  =========                 |
  \\      /  F ield         | OpenFOAM: The Open Source CFD Toolbox
   \\    /   O peration     | Website:  https://openfoam.org
    \\  /    A nd           | Version:  6
     \\/     M anipulation  |
\*---------------------------------------------------------------------------*/
FoamFile
{
    version     2.0;
    format      ascii;
    class       scalarField;
    location    "0.1/lagrangian/sprayCloud";
    object      rho;
}
// * * * * * * * * * * * * * * * * * * * * * * * * * * * * * * * * * * * * * //


572
(
734.592
734.593
734.604
734.591
734.607
734.577
734.594
734.613
734.578
734.604
734.586
734.595
734.6
734.597
734.599
734.592
734.594
734.594
734.614
734.684
734.612
734.613
734.6
734.582
734.621
734.602
734.606
734.581
734.587
734.612
734.581
734.612
734.612
734.599
734.594
734.6
734.594
734.599
734.599
734.611
734.632
734.599
734.589
734.611
734.586
734.565
734.616
734.591
734.609
734.609
734.611
734.577
734.599
734.603
734.61
734.593
734.595
734.598
734.591
734.6
734.61
734.621
734.212
734.594
734.558
734.442
734.565
734.616
734.604
734.616
734.623
734.623
734.603
734.604
734.607
734.623
734.604
734.598
734.575
734.625
734.59
734.681
734.622
734.59
734.573
734.575
734.62
734.628
734.584
734.629
734.586
734.628
734.61
734.608
734.619
734.606
734.614
734.608
734.601
734.574
734.54
734.61
734.61
734.603
734.602
734.583
734.581
734.601
734.578
734.593
734.578
734.58
734.618
734.618
734.616
734.614
734.617
734.65
734.648
734.648
734.748
734.65
734.645
734.523
734.506
734.49
734.49
734.494
734.499
734.499
734.494
734.494
734.505
734.518
734.52
734.527
734.515
734.515
734.525
734.529
734.529
734.509
734.515
734.525
734.508
734.52
734.524
734.524
734.52
734.524
734.534
734.523
734.552
734.524
734.546
734.505
734.44
734.533
734.548
734.547
734.533
734.666
734.536
734.546
734.594
734.524
734.559
734.547
734.546
734.533
734.78
734.536
734.594
734.531
734.545
734.547
734.548
734.538
734.505
734.541
734.576
734.523
734.566
734.54
734.54
734.542
734.553
734.584
734.556
734.553
734.582
734.551
734.54
734.576
734.555
734.576
734.559
734.55
734.547
734.552
734.556
734.577
734.585
734.602
734.565
734.584
734.571
734.579
734.601
734.6
734.597
734.579
734.585
734.565
734.579
734.546
734.576
734.584
734.587
734.606
734.578
734.588
734.57
734.562
734.585
734.521
734.535
734.535
734.548
734.524
734.615
734.634
734.616
734.639
734.616
734.637
734.65
734.65
734.635
734.632
734.651
734.609
734.632
734.645
734.593
734.554
734.651
734.653
735.036
734.678
734.65
734.62
734.659
734.632
734.613
734.647
734.558
734.635
734.535
734.535
734.533
734.558
734.544
734.589
734.606
734.685
734.542
734.674
734.593
734.644
734.535
734.629
734.633
734.617
734.542
734.614
734.668
734.6
734.617
734.603
734.603
734.627
734.529
734.634
734.596
734.598
734.646
734.657
734.666
734.648
734.615
734.598
734.596
734.615
734.603
734.588
734.646
734.657
734.61
734.759
734.573
734.554
734.586
734.458
734.626
734.608
734.617
734.458
734.636
734.711
734.608
734.642
734.719
734.608
734.648
734.636
734.668
734.668
734.635
734.668
734.592
734.573
734.492
734.607
734.618
734.514
734.598
734.297
734.598
734.563
734.529
734.297
734.563
734.481
734.589
734.581
734.589
734.612
734.572
734.601
734.541
734.523
734.599
734.585
734.597
734.678
734.503
734.611
734.572
734.678
734.764
734.578
734.576
734.592
734.586
734.568
734.507
734.592
734.586
734.562
734.542
734.517
734.521
734.648
734.733
734.725
734.659
734.659
734.502
734.609
734.472
734.603
734.583
734.464
734.688
734.664
734.531
734.63
734.492
734.545
734.492
734.61
734.54
734.496
734.581
734.604
734.571
734.555
734.577
734.636
734.645
734.599
734.591
734.541
734.663
734.484
734.654
734.564
734.585
734.596
734.326
734.356
734.561
734.51
734.401
734.556
734.427
734.531
734.514
734.554
734.495
734.144
734.552
734.599
734.599
734.478
734.584
734.42
734.578
734.584
734.425
734.487
734.401
734.43
734.517
734.496
734.462
734.48
734.503
734.487
734.706
734.7
734.442
734.514
734.533
752.966
734.314
734.425
734.447
783.263
734.314
734.423
759.525
734.669
785.126
734.415
777.123
761.044
734.415
734.575
734.503
734.473
734.641
734.575
734.542
786.381
786.655
730.979
734.733
734.674
777.797
734.708
734.674
735.015
734.912
734.599
735.893
734.883
734.615
734.615
735.148
735.084
735.084
734.407
784.224
787.076
734.46
785.853
786.534
791.177
734.404
786.778
734.428
770.744
734.459
791.029
734.449
785.592
789.758
781.799
789.916
734.394
734.328
784.696
788.078
788.839
788.51
787.084
789.377
787.779
787.269
786.33
742.604
734.293
786.409
734.364
734.36
734.364
786.13
785.19
787.571
768.033
789.158
784.492
787.685
784.306
783.152
776.226
787.741
783.276
780.898
786.289
787.591
788.984
785.944
786.614
787.087
765.32
749.026
785.903
788.695
734.481
785.589
787.109
734.456
787.063
786.588
734.481
789.682
790.293
734.478
777.7
755.448
734.364
767.657
787.044
791.372
762.487
785.937
735.357
783.485
759.81
785.975
790.37
734.881
782.559
784.589
734.881
788.06
776.389
789.357
785.976
786.099
780.576
787.271
784.587
787.05
785.956
785.988
786.145
785.236
785.67
)


// ************************************************************************* //
