/*--------------------------------*- C++ -*----------------------------------*\
  =========                 |
  \\      /  F ield         | OpenFOAM: The Open Source CFD Toolbox
   \\    /   O peration     | Website:  https://openfoam.org
    \\  /    A nd           | Version:  6
     \\/     M anipulation  |
\*---------------------------------------------------------------------------*/
FoamFile
{
    version     2.0;
    format      ascii;
    class       scalarField;
    location    "0.1/lagrangian/sprayCloud";
    object      sigma;
}
// * * * * * * * * * * * * * * * * * * * * * * * * * * * * * * * * * * * * * //


572
(
0.0174257
0.0174258
0.0174268
0.0174257
0.0174271
0.0174245
0.0174259
0.0174276
0.0174245
0.0174268
0.0174253
0.0174261
0.0174265
0.0174262
0.0174263
0.0174258
0.017426
0.0174259
0.0174277
0.0174338
0.0174275
0.0174276
0.0174265
0.0174249
0.0174283
0.0174266
0.017427
0.0174248
0.0174253
0.0174275
0.0174248
0.0174275
0.0174275
0.0174263
0.017426
0.0174265
0.017426
0.0174264
0.0174264
0.0174274
0.0174292
0.0174264
0.0174255
0.0174275
0.0174252
0.0174234
0.0174278
0.0174257
0.0174272
0.0174273
0.0174274
0.0174244
0.0174264
0.0174267
0.0174274
0.0174258
0.017426
0.0174263
0.0174257
0.0174265
0.0174274
0.0174283
0.0173926
0.017426
0.0174227
0.0174127
0.0174234
0.0174279
0.0174268
0.0174279
0.0174285
0.0174285
0.0174267
0.0174268
0.017427
0.0174285
0.0174268
0.0174263
0.0174243
0.0174286
0.0174256
0.0174335
0.0174284
0.0174256
0.0174241
0.0174242
0.0174282
0.0174289
0.0174251
0.0174289
0.0174252
0.0174289
0.0174274
0.0174272
0.0174281
0.017427
0.0174277
0.0174272
0.0174265
0.0174242
0.0174212
0.0174273
0.0174273
0.0174267
0.0174267
0.017425
0.0174248
0.0174266
0.0174245
0.0174259
0.0174245
0.0174247
0.017428
0.017428
0.0174278
0.0174276
0.0174279
0.0174308
0.0174306
0.0174306
0.0174394
0.0174308
0.0174304
0.0174197
0.0174182
0.0174169
0.0174168
0.0174172
0.0174176
0.0174176
0.0174172
0.0174172
0.0174182
0.0174193
0.0174194
0.0174201
0.017419
0.0174191
0.0174199
0.0174202
0.0174203
0.0174185
0.017419
0.0174199
0.0174184
0.0174194
0.0174198
0.0174198
0.0174194
0.0174198
0.0174207
0.0174197
0.0174223
0.0174198
0.0174217
0.0174182
0.0174125
0.0174206
0.0174219
0.0174219
0.0174206
0.0174322
0.0174208
0.0174217
0.0174259
0.0174198
0.0174229
0.0174219
0.0174218
0.0174206
0.0174422
0.0174209
0.0174259
0.0174205
0.0174216
0.0174218
0.0174219
0.0174211
0.0174181
0.0174213
0.0174244
0.0174197
0.0174235
0.0174212
0.0174212
0.0174214
0.0174223
0.0174251
0.0174226
0.0174223
0.0174249
0.0174222
0.0174212
0.0174243
0.0174225
0.0174243
0.0174229
0.0174221
0.0174218
0.0174223
0.0174226
0.0174244
0.0174252
0.0174266
0.0174234
0.0174251
0.0174239
0.0174246
0.0174266
0.0174265
0.0174262
0.0174246
0.0174251
0.0174234
0.0174246
0.0174218
0.0174244
0.017425
0.0174253
0.0174269
0.0174245
0.0174254
0.0174238
0.0174231
0.0174252
0.0174196
0.0174208
0.0174208
0.0174219
0.0174198
0.0174277
0.0174294
0.0174279
0.0174299
0.0174279
0.0174297
0.0174308
0.0174308
0.0174295
0.0174292
0.0174309
0.0174272
0.0174293
0.0174304
0.0174258
0.0174224
0.0174309
0.017431
0.0174646
0.0174332
0.0174308
0.0174282
0.0174316
0.0174293
0.0174276
0.0174305
0.0174228
0.0174295
0.0174208
0.0174208
0.0174206
0.0174228
0.0174216
0.0174255
0.017427
0.0174339
0.0174214
0.0174329
0.0174258
0.0174303
0.0174208
0.017429
0.0174293
0.0174279
0.0174214
0.0174277
0.0174324
0.0174265
0.0174279
0.0174267
0.0174267
0.0174288
0.0174203
0.0174294
0.0174261
0.0174263
0.0174304
0.0174315
0.0174322
0.0174306
0.0174278
0.0174263
0.0174261
0.0174278
0.0174267
0.0174254
0.0174304
0.0174315
0.0174273
0.0174403
0.0174241
0.0174225
0.0174252
0.0174141
0.0174287
0.0174272
0.0174279
0.0174141
0.0174296
0.0174361
0.0174272
0.0174301
0.0174369
0.0174272
0.0174307
0.0174296
0.0174324
0.0174324
0.0174295
0.0174324
0.0174258
0.0174241
0.017417
0.0174271
0.017428
0.0174189
0.0174263
0.0174
0.0174263
0.0174232
0.0174203
0.0174
0.0174232
0.0174161
0.0174255
0.0174248
0.0174255
0.0174275
0.017424
0.0174265
0.0174213
0.0174197
0.0174263
0.0174251
0.0174262
0.0174332
0.017418
0.0174274
0.017424
0.0174333
0.0174408
0.0174246
0.0174244
0.0174258
0.0174253
0.0174237
0.0174184
0.0174258
0.0174253
0.0174231
0.0174214
0.0174192
0.0174196
0.0174307
0.017438
0.0174374
0.0174316
0.0174316
0.0174179
0.0174272
0.0174153
0.0174267
0.017425
0.0174146
0.0174342
0.017432
0.0174204
0.017429
0.017417
0.0174216
0.017417
0.0174273
0.0174212
0.0174174
0.0174248
0.0174268
0.0174239
0.0174225
0.0174244
0.0174296
0.0174304
0.0174264
0.0174257
0.0174213
0.0174319
0.0174163
0.0174312
0.0174233
0.0174252
0.0174261
0.0174025
0.0174052
0.0174231
0.0174186
0.017409
0.0174226
0.0174113
0.0174204
0.017419
0.0174224
0.0174173
0.0173867
0.0174222
0.0174264
0.0174264
0.0174158
0.0174251
0.0174108
0.0174246
0.0174251
0.0174112
0.0174165
0.0174091
0.0174116
0.0174192
0.0174174
0.0174144
0.017416
0.017418
0.0174165
0.0174357
0.0174352
0.0174126
0.0174189
0.0174206
0.0190424
0.0174015
0.0174112
0.0174131
0.0217379
0.0174015
0.017411
0.0196239
0.0174324
0.0219039
0.0174103
0.0211904
0.0197588
0.0174103
0.0174243
0.017418
0.0174153
0.01743
0.0174243
0.0174214
0.0220157
0.0220401
0.0171107
0.0174381
0.017433
0.0212505
0.0174358
0.017433
0.0174627
0.0174537
0.0174263
0.0175394
0.0174511
0.0174278
0.0174278
0.0174743
0.0174688
0.0174688
0.0174096
0.0218235
0.0220776
0.0174142
0.0219687
0.0220294
0.0224429
0.0174094
0.0220511
0.0174114
0.0206219
0.0174142
0.0224298
0.0174133
0.0219454
0.0223165
0.0216074
0.0223306
0.0174085
0.0174027
0.0218656
0.0221669
0.0222347
0.0222054
0.0220784
0.0222826
0.0221403
0.0220949
0.0220112
0.018128
0.0173996
0.0220182
0.0174059
0.0174055
0.0174059
0.0219934
0.0219096
0.0221218
0.0203805
0.0222632
0.0218474
0.0221319
0.0218308
0.0217279
0.0211105
0.0221369
0.021739
0.021527
0.0220075
0.0221236
0.0222477
0.0219767
0.0220365
0.0220787
0.020139
0.018694
0.0219732
0.0222219
0.0174161
0.0219452
0.0220806
0.0174138
0.0220765
0.0220342
0.0174161
0.0223098
0.0223642
0.0174158
0.0212419
0.0192622
0.0174058
0.020347
0.0220748
0.0224603
0.0198871
0.0219761
0.0174926
0.0217576
0.0196492
0.0219795
0.022371
0.017451
0.0216751
0.021856
0.017451
0.0221653
0.021125
0.0222809
0.0219797
0.0219906
0.0214983
0.022095
0.0218558
0.0220754
0.0219779
0.0219807
0.0219947
0.0219137
0.0219524
)


// ************************************************************************* //
