/*--------------------------------*- C++ -*----------------------------------*\
  =========                 |
  \\      /  F ield         | OpenFOAM: The Open Source CFD Toolbox
   \\    /   O peration     | Website:  https://openfoam.org
    \\  /    A nd           | Version:  6
     \\/     M anipulation  |
\*---------------------------------------------------------------------------*/
FoamFile
{
    version     2.0;
    format      ascii;
    class       scalarField;
    location    "0.1/lagrangian/sprayCloud";
    object      T;
}
// * * * * * * * * * * * * * * * * * * * * * * * * * * * * * * * * * * * * * //


572
(
351.161
351.16
351.15
351.162
351.147
351.175
351.159
351.141
351.174
351.15
351.166
351.158
351.154
351.156
351.155
351.161
351.159
351.159
351.14
351.075
351.142
351.141
351.153
351.171
351.134
351.152
351.148
351.171
351.166
351.142
351.171
351.143
351.143
351.155
351.159
351.153
351.159
351.154
351.154
351.144
351.124
351.154
351.164
351.143
351.167
351.186
351.139
351.162
351.145
351.145
351.143
351.175
351.154
351.151
351.144
351.16
351.158
351.156
351.162
351.153
351.144
351.134
351.516
351.159
351.193
351.301
351.187
351.138
351.15
351.138
351.132
351.132
351.151
351.15
351.147
351.132
351.15
351.155
351.177
351.131
351.163
351.078
351.133
351.163
351.179
351.177
351.135
351.128
351.168
351.127
351.167
351.127
351.144
351.146
351.136
351.148
351.14
351.146
351.153
351.178
351.21
351.144
351.144
351.151
351.152
351.169
351.171
351.152
351.174
351.16
351.174
351.172
351.137
351.137
351.139
351.141
351.138
351.107
351.109
351.109
351.015
351.107
351.112
351.225
351.241
351.256
351.256
351.252
351.248
351.248
351.253
351.253
351.242
351.23
351.229
351.222
351.233
351.233
351.223
351.22
351.22
351.239
351.233
351.223
351.24
351.229
351.225
351.225
351.229
351.225
351.216
351.225
351.198
351.225
351.204
351.242
351.303
351.216
351.202
351.203
351.216
351.092
351.214
351.204
351.159
351.225
351.192
351.203
351.204
351.216
350.986
351.213
351.159
351.218
351.205
351.203
351.202
351.211
351.243
351.209
351.176
351.226
351.185
351.209
351.209
351.208
351.198
351.169
351.194
351.198
351.171
351.199
351.21
351.176
351.196
351.176
351.192
351.2
351.203
351.198
351.195
351.176
351.167
351.152
351.186
351.169
351.181
351.174
351.152
351.154
351.156
351.174
351.168
351.187
351.174
351.204
351.176
351.169
351.166
351.148
351.174
351.164
351.182
351.189
351.167
351.227
351.214
351.214
351.202
351.224
351.14
351.122
351.139
351.117
351.138
351.119
351.107
351.107
351.121
351.124
351.106
351.145
351.123
351.112
351.161
351.197
351.106
351.105
350.746
351.081
351.107
351.135
351.098
351.124
351.141
351.11
351.193
351.121
351.214
351.214
351.217
351.193
351.206
351.164
351.148
351.074
351.208
351.085
351.161
351.113
351.214
351.127
351.123
351.138
351.208
351.141
351.091
351.153
351.138
351.151
351.151
351.128
351.22
351.122
351.158
351.155
351.111
351.1
351.092
351.109
351.14
351.156
351.158
351.14
351.151
351.165
351.111
351.1
351.144
351.005
351.179
351.196
351.167
351.286
351.129
351.146
351.138
351.286
351.12
351.05
351.146
351.115
351.042
351.146
351.109
351.12
351.09
351.09
351.121
351.09
351.161
351.179
351.254
351.147
351.137
351.234
351.155
351.436
351.155
351.189
351.22
351.436
351.188
351.264
351.164
351.171
351.164
351.143
351.18
351.153
351.208
351.226
351.155
351.168
351.157
351.081
351.244
351.143
351.18
351.08
351.001
351.174
351.176
351.161
351.166
351.183
351.24
351.161
351.166
351.189
351.208
351.231
351.227
351.109
351.03
351.037
351.098
351.098
351.245
351.146
351.273
351.151
351.17
351.28
351.071
351.094
351.218
351.126
351.255
351.205
351.255
351.145
351.21
351.25
351.171
351.15
351.181
351.196
351.175
351.12
351.111
351.154
351.162
351.209
351.095
351.262
351.103
351.188
351.167
351.157
351.41
351.381
351.19
351.238
351.34
351.195
351.315
351.218
351.234
351.197
351.251
351.579
351.199
351.154
351.154
351.267
351.169
351.321
351.174
351.169
351.317
351.26
351.34
351.312
351.231
351.25
351.282
351.266
351.244
351.26
351.055
351.06
351.302
351.234
351.217
333.542
351.42
351.317
351.297
302.474
351.42
351.319
327.028
351.09
300.483
351.326
308.972
325.503
351.326
351.177
351.244
351.272
351.116
351.177
351.208
299.136
298.841
354.517
351.029
351.084
308.264
351.053
351.084
350.766
350.862
351.155
349.945
350.89
351.139
351.139
350.642
350.701
350.701
351.334
301.448
298.388
351.284
299.702
298.971
293.95
351.336
298.709
351.314
315.615
351.285
294.11
351.294
299.983
295.49
304.032
295.319
351.346
351.408
300.943
297.308
296.485
296.841
298.379
295.903
297.63
298.18
299.19
343.592
351.44
299.105
351.374
351.378
351.374
299.405
300.414
297.854
318.404
296.139
301.161
297.731
301.361
302.593
309.912
297.671
302.46
304.989
299.235
297.833
296.328
299.606
298.885
298.376
321.175
337.398
299.649
296.641
351.265
299.986
298.353
351.288
298.401
298.913
351.265
295.573
294.91
351.268
308.366
331.091
351.374
318.789
298.423
293.737
324.048
299.613
350.447
302.237
326.742
299.572
294.826
350.891
303.224
301.057
350.891
297.327
309.742
295.924
299.57
299.439
305.33
298.178
301.06
298.415
299.592
299.558
299.389
300.365
299.899
)


// ************************************************************************* //
