/*--------------------------------*- C++ -*----------------------------------*\
  =========                 |
  \\      /  F ield         | OpenFOAM: The Open Source CFD Toolbox
   \\    /   O peration     | Website:  https://openfoam.org
    \\  /    A nd           | Version:  6
     \\/     M anipulation  |
\*---------------------------------------------------------------------------*/
FoamFile
{
    version     2.0;
    format      ascii;
    class       scalarField;
    location    "0.1/lagrangian/sprayCloud";
    object      tMom;
}
// * * * * * * * * * * * * * * * * * * * * * * * * * * * * * * * * * * * * * //


572
(
8.83165e-05
0.000329926
0.000162329
0.000252188
0.000152435
0.000472014
0.000149737
0.00015083
0.000728065
0.000472389
0.000125435
0.000799676
0.000521836
0.000346209
3.87106e-05
0.00010921
5.76073e-06
0.0011606
0.000239497
0.000147467
1.86932e-05
0.000331377
0.00117431
0.000412402
0.000178472
0.000880007
0.000251118
0.000552152
0.00166526
0.000271135
0.000923841
0.000226484
0.000248129
0.00115079
0.000390814
0.000622503
0.000868892
0.000119587
0.000130255
1.2953e-05
0.000131952
0.000479558
0.000142642
0.000288655
0.00133561
8.5804e-05
3.69013e-05
4.61388e-05
0.000825566
4.86665e-05
9.41533e-05
0.00239378
0.000127021
0.000243438
0.000554212
0.000103624
0.000215396
0.000103435
0.000120912
0.000146912
0.0011032
6.32634e-05
0.000326186
0.000115647
0.000595262
0.000275806
0.000639206
0.0003243
0.00049574
0.000328927
5.26361e-05
0.000235876
0.000135419
4.97726e-06
0.000149662
0.000479044
0.000222061
0.000246126
0.000129218
0.000108817
0.000447826
0.000165127
0.00010604
0.000762827
0.000926121
0.000481129
2.41137e-05
0.000489894
0.00104541
0.00010468
0.0013403
0.00112318
0.000162329
2.93165e-06
0.000540779
7.58578e-05
0.000462607
0.000617905
0.000144613
0.000332528
0.000471287
0.000348428
0.000747414
0.000121898
9.93568e-05
0.000249338
0.000470718
6.08775e-05
1.70183e-06
0.00221518
0.000170636
0.000365695
8.16641e-05
0.000295294
0.00023219
0.000511586
0.000830147
3.81462e-05
0.000385703
0.000290927
0.000716463
1.07041e-05
0.00128374
5.56033e-05
0.000225653
4.37504e-05
5.45117e-06
0.000146557
0.000218999
8.69108e-05
0.000656643
0.00142688
0.00101145
0.000718862
0.00021118
7.23837e-05
0.000182421
0.000360316
7.15723e-05
4.55089e-05
0.0002193
0.000238535
0.000420148
7.79138e-05
0.000597756
0.000478401
0.000443802
0.000713736
0.000566672
0.000198383
0.000317275
0.000331453
0.000152299
0.000286753
0.000117248
0.000523102
1.2647e-06
0.000143583
0.000322319
0.000215667
9.39421e-06
0.000300591
0.000121409
9.34831e-05
0.00048181
0.00148919
9.49294e-05
1.90846e-05
0.000149986
0.000377986
0.000801119
0.000164845
0.000690675
0.000233316
0.000216537
5.39872e-05
0.000193336
7.74693e-05
0.00140153
0.000108824
4.70659e-05
0.000213806
0.000336564
0.000352343
0.000375138
0.000798395
9.11199e-05
6.23479e-05
0.000236402
0.000477015
6.1825e-05
0.000425229
0.00105067
0.000241009
0.000251971
0.000193868
0.000333484
0.000974935
0.00201701
0.000504187
0.000619061
0.000459779
0.000494624
0.000344457
0.000553539
0.00106467
3.67583e-05
0.000191472
0.000573834
0.000575934
0.000542382
0.000733779
7.21732e-05
0.000240469
0.00064441
0.0004838
0.00032937
0.000282729
0.00079429
9.49531e-06
0.000728655
0.00147854
0.000497534
0.000960533
0.000522773
2.94061e-05
0.000748426
0.000308406
8.95925e-05
0.00050129
0.000165093
7.17059e-05
7.78043e-05
9.59753e-06
0.000200842
4.22242e-05
0.000115337
0.000139587
0.000164068
9.28491e-05
0.000388448
0.000399379
5.22425e-05
7.66782e-06
0.000100778
3.3736e-05
0.000223506
0.000226994
8.61068e-05
3.7105e-06
0.000121584
9.12022e-05
0.000226245
0.000318138
9.5438e-05
0.000565875
5.33618e-05
0.000117984
0.000296293
0.000260576
0.000182244
0.00097395
0.000229491
0.000683852
3.97132e-05
0.000143453
0.000130229
0.000159224
0.000621838
0.000403333
0.000130407
0.000536282
2.81479e-05
6.85338e-05
5.33249e-05
1.48002e-05
0.00014082
0.000175275
0.000223064
0.000523231
0.00125217
2.38958e-05
0.000485294
2.63609e-05
0.000251128
0.000853187
2.90776e-05
2.06188e-05
9.85597e-05
1.90997e-05
1.08563e-05
3.93056e-05
0.000714673
0.000814239
1.81233e-05
0.000665159
0.000133392
0.00112369
9.67494e-05
4.28699e-05
0.00112375
3.58312e-06
0.000821096
8.60468e-05
0.000839651
0.000144776
0.000437936
0.000113205
0.000242963
7.38086e-05
0.0003666
0.000414727
0.000597423
0.00141136
0.000817282
6.50432e-05
9.9163e-05
6.00183e-05
0.000599583
0.000156952
0.000177892
0.00111699
0.000683083
9.98114e-05
0.00139638
0.00133035
9.75288e-05
6.66939e-05
0.000385968
0.000928509
0.000443735
0.000767474
7.6101e-05
0.000519508
0.000604287
7.76148e-05
0.000660836
0.000963173
0.0025992
0.000171446
0.000275121
0.000258161
5.70318e-05
0.000198677
0.000430601
0.000730362
0.000116355
0.000993636
0.000195075
0.000915319
8.94352e-05
2.16068e-05
0.000591306
0.000210463
0.000229852
0.000333091
5.49703e-05
0.000346082
0.000163482
0.000730912
0.000200803
0.000709836
0.00107062
0.000184473
0.000526493
0.000113721
0.00017552
0.000312475
0.00013442
0.000106359
5.99678e-05
0.000154903
1.24044e-06
0.000108295
0.000237968
5.11227e-05
0.000284669
4.37477e-05
0.000113725
5.48043e-05
0.00062881
0.000350032
0.000632976
0.000571213
0.00184939
4.97794e-05
1.85757e-05
8.2282e-05
1.50583e-05
2.4755e-05
0.000730963
0.000144239
0.00014108
0.00103854
0.00124353
0.000225606
0.00249889
0.000526617
0.000323478
1.54328e-05
0.000283263
0.000128131
0.000168455
0.000931131
0.0011958
0.000614432
0.000896068
0.000455646
0.000274724
2.4778e-05
0.000350265
4.07734e-05
7.19308e-05
0.000183616
0.000409216
0.000413989
0.0015389
6.00418e-05
0.000646219
0.000325504
0.00036882
0.00011233
0.000157948
1.87832e-05
0.000117303
0.00160966
2.08527e-05
0.000793681
0.000527858
0.000391897
5.12151e-05
0.00027397
5.39214e-05
0.000469375
0.000240375
0.00182588
0.000121203
0.000112081
0.000464104
0.00178843
0.000296372
0.00131134
0.000196336
0.000205424
0.00161
0.00038244
0.000158753
0.00033694
0.000207429
5.96329e-05
3.88928e-06
0.00088652
0.000226482
1.47064e-05
0.000293751
0.00135341
0.00114239
1.38184e-05
0.000303357
0.000473484
0.000203972
0.000848363
0.000526312
1.91804e-05
2.75174e-05
7.49573e-05
4.91437e-05
0.000414534
2.61576e-05
0.000587812
0.000115565
0.000566814
0.000131597
0.000103408
0.00321304
0.000992607
6.68501e-05
0.00600723
0.00296781
0.000334577
0.000327748
0.000257041
0.000598888
0.000106084
0.000616892
0.000448956
0.00101839
0.000437402
0.000539813
0.000173258
0.000666232
0.000352137
0.000122736
0.00176821
0.00129846
0.000926046
0.00099318
0.00190961
9.43787e-05
0.000810461
0.00203915
0.0052457
0.000531451
9.7242e-05
0.0029274
0.000166121
0.00058184
0.000295789
0.00171003
0.000135413
0.00129391
0.00136167
0.0007233
0.000347121
0.00110946
0.00200303
0.000902938
0.000891982
0.000475804
0.000652241
0.000469986
0.00155008
0.000953472
0.000570444
6.78913e-05
0.00126041
0.00137211
0.00150401
0.000569735
0.00103423
0.00010901
1.17084e-05
0.00168068
0.00106103
0.000217823
0.00116622
0.000575097
0.000134053
0.000290899
0.000196694
4.99249e-05
0.000109397
0.000488204
5.56764e-05
0.000641423
0.000390321
0.000137147
9.57676e-05
0.000416638
0.000183587
0.000267124
0.000173673
0.0018362
0.000107165
5.17288e-05
0.000271443
0.000162984
2.47132e-05
0.000241833
0.000289416
9.45518e-05
0.00125411
0.000917051
0.000738647
0.000251752
0.000587062
0.000114124
0.000544981
0.000385483
0.000233527
0.000172306
0.000547761
)


// ************************************************************************* //
