/*--------------------------------*- C++ -*----------------------------------*\
  =========                 |
  \\      /  F ield         | OpenFOAM: The Open Source CFD Toolbox
   \\    /   O peration     | Website:  https://openfoam.org
    \\  /    A nd           | Version:  6
     \\/     M anipulation  |
\*---------------------------------------------------------------------------*/
FoamFile
{
    version     2.0;
    format      ascii;
    class       scalarField;
    location    "0.1/lagrangian/sprayCloud";
    object      tTurb;
}
// * * * * * * * * * * * * * * * * * * * * * * * * * * * * * * * * * * * * * //


572
(
0.000708975
4.86934e-05
0.000469061
0.000238394
0.000404111
0.000140747
9.03231e-06
0.000598957
4.53045e-05
0.000121917
0.00026688
9.70061e-05
0.000150306
0.000126531
0.000492727
0.000604649
0.000613044
1.24531e-05
0.000246901
0.000979319
0.000399725
0.000167165
3.65809e-05
2.83307e-05
0.000437191
8.25778e-05
0.000218588
9.80102e-06
8.50925e-05
0.000106152
2.13086e-05
0.000193377
3.01987e-05
4.53045e-05
0.000182426
0.000132493
0.000103674
0.000410496
0.000107789
0.000744459
0.000401529
0.000240415
0.000231281
0.000287989
0.000112806
0.000484982
0.00106108
0.000721896
2.92647e-05
0.000629663
5.49664e-05
5.27926e-05
0.000343719
9.13727e-05
7.89721e-05
0.000120124
0.000287989
0.000349886
0.00036127
0.00026688
0.000122628
0.000715627
0.000162883
0.000343719
9.4487e-05
0.000137268
9.5944e-05
7.87925e-06
0.00018481
7.16998e-05
0.000421215
8.25778e-05
0.000211468
0.000438249
0.000137268
3.77483e-05
0.000129203
5.78545e-05
0.000311399
0.000223768
4.53045e-05
0.000133596
0.000492727
2.70854e-05
4.86934e-05
2.13086e-05
0.000498361
0.000108982
4.42343e-05
0.000113883
1.34524e-06
0.000117197
0.000401529
0.000135292
8.04196e-05
9.03231e-06
0.000116239
7.82346e-05
0.000162883
0.000117197
3.77483e-05
0.000157579
0.000135292
0.000404111
0.000142752
3.26701e-06
7.76579e-05
0.000142752
0.000410496
9.13727e-05
4.53045e-05
0.000128668
0.000355777
5.40348e-05
3.26701e-06
5.49664e-05
7.62106e-05
0.000146805
3.15218e-05
0.00027285
4.67059e-05
0.000117197
4.42343e-05
7.82346e-05
0.000218588
0.00137356
0.0015315
0.000554157
0.000901813
0.000617501
0.000486769
3.01987e-05
0.00028515
0.000329621
0.00063727
0.000901813
0.00063727
1.34524e-06
0.000737724
0.000492727
0.00046428
5.49664e-05
0.000532347
0.000311399
3.01987e-05
2.13086e-05
0.000319162
0.000174016
0.000142752
0.000450162
2.40759e-05
0.000531015
0.000666819
0.00016922
0.000805865
7.99371e-05
0.0006226
0.0006226
0.000382978
0.000278565
0.000733885
6.72476e-05
0.000666819
0.00053875
7.38556e-05
0.000125329
0.0005837
0.00110508
0.000890553
0.00017196
5.61776e-05
0.000503544
0.000111728
0.000456469
0.00036127
0.000695314
0.000218588
0.000742934
2.24155e-05
0.000498361
0.00063727
0.000316918
0.000617501
0.000283049
0.000233491
9.95434e-05
0.000542113
0.000559036
0.000436993
0.00014866
0.000721896
9.03231e-06
7.99371e-05
0.000747913
0.000329621
0.000362544
3.26701e-06
0.000111728
7.62106e-05
8.61769e-05
0.000108982
0.00018481
9.13727e-05
0.000311399
0.000141749
1.96482e-05
0.000715627
1.85412e-05
0.000135995
0.000162883
3.26893e-05
7.13455e-05
0.000579792
0.000290198
0.00018481
0.00014866
0.000151951
0.000165109
7.13455e-05
5.18878e-06
0.000174016
1.17612e-05
0.000195567
6.12448e-05
0.000167165
0.000534802
8.18963e-05
1.57739e-05
0.000290401
2.13086e-05
0.000162883
0.00059205
0.000113883
0.000538582
3.77483e-05
8.98462e-05
0.000211468
6.8987e-05
0.000157579
0.00016922
8.93161e-05
3.26893e-05
0.00016922
0.000157579
9.03231e-06
0.000516573
3.26701e-06
4.67059e-05
0.000135292
0.00046428
0.000122628
0.000305532
0.000135995
5.78545e-05
0.000240415
5.1861e-05
0.000142752
0.000151951
0.000129739
0.000146805
0.000129739
2.61514e-05
8.13738e-05
6.8987e-05
0.000193377
1.09541e-05
0.000142752
6.72476e-05
7.68708e-07
5.49664e-05
1.31449e-05
1.49437e-05
0.00026688
0.000218588
1.31449e-05
0.000329621
6.29597e-05
1.85412e-05
2.52175e-05
1.31449e-05
3.26893e-05
6.29597e-05
1.57739e-05
0.000329621
9.3384e-05
4.53045e-05
0.000334642
6.8987e-05
0.000233491
0.000151951
8.50925e-05
1.57739e-05
5.49664e-05
7.68708e-06
0.000226052
3.77483e-05
0.000132493
4.96872e-05
0.000204853
0.00016922
8.45578e-06
0.000188062
3.77483e-05
0.00016922
1.09541e-05
0.000137268
7.82346e-05
0.000124732
4.16399e-05
0.000182426
3.50242e-05
1.66041e-05
1.34524e-06
2.11395e-06
3.01987e-05
0.000176071
6.04793e-05
6.04793e-05
5.09293e-05
0.000129739
2.13086e-05
7.11055e-06
5.89482e-05
0.000124732
5.97137e-05
5.97137e-05
0.000162883
1.34524e-06
8.66049e-05
5.97137e-05
2.70854e-05
2.40759e-05
4.86934e-05
4.86934e-05
2.40759e-05
0.000182426
3.26701e-06
4.86934e-05
9.03231e-06
0.000131699
0.000131699
3.77483e-05
0.000299305
3.38568e-05
5.7016e-05
6.29597e-05
0.000131699
3.77483e-05
0.000124732
9.80682e-05
0.000312261
0.00027285
3.38568e-05
6.04793e-05
1.38367e-05
5.78545e-05
8.8927e-05
5.78545e-05
6.04793e-05
8.45578e-06
0.000218588
6.04793e-05
3.26701e-06
8.09649e-05
4.16399e-05
0.000110175
0.000193377
0.000126531
6.04793e-05
0.00026688
5.18878e-06
0.000117197
0.000122628
0.000220577
0.000151951
0.000285371
0.000146805
0.000278565
9.03231e-06
3.26701e-06
1.66041e-05
0.000197394
1.57739e-05
0.000122628
6.79944e-05
0.000233491
0.00026688
9.03231e-06
7.99371e-05
6.72476e-05
9.95434e-05
6.29597e-05
0.000100782
1.49437e-05
0.000110175
0.000142752
7.89721e-05
0.000135292
8.78675e-05
2.70854e-05
0.000135292
0.00018481
0.000142752
0.00013966
6.52321e-05
0.00016922
0.000128056
0.000165109
0.000182426
0.000193377
0.000151951
0.000122628
6.29597e-05
0.000151951
0.000162985
8.83254e-05
0.000131699
5.18878e-06
8.66049e-05
0.000129739
3.26701e-06
1.57739e-05
8.98462e-05
8.25778e-05
5.18878e-06
5.1861e-05
0.00013966
2.40759e-05
3.26701e-06
1.09541e-05
3.77483e-05
0.000113883
1.34524e-06
9.03231e-06
2.40759e-05
6.04793e-05
1.31449e-05
1.09541e-05
1.09541e-05
2.70854e-05
1.34524e-06
3.15218e-05
7.11055e-06
4.86934e-05
3.26893e-05
1.57739e-05
1.85412e-05
1.09541e-05
2.70854e-05
1.31449e-05
7.16998e-05
3.01987e-05
1.24531e-05
7.16998e-05
1.31449e-05
1.09541e-05
2.40759e-05
1.31449e-05
1.24531e-05
1.12679e-05
1.85412e-05
1.09541e-05
1.31449e-05
2.70854e-05
1.85412e-05
1.57739e-05
2.70854e-05
7.11055e-06
1.57739e-05
7.11055e-06
2.70854e-05
1.68808e-05
2.70854e-05
4.03571e-06
1.68808e-05
1.85412e-05
6.04793e-05
1.85412e-05
2.52175e-05
1.09541e-05
3.15218e-05
2.13086e-05
2.13086e-05
6.04793e-05
1.7711e-05
8.98462e-05
7.87925e-06
2.13301e-05
4.76997e-05
2.79402e-05
6.8987e-05
1.59e-05
1.09541e-05
2.83307e-05
9.4487e-05
6.04793e-05
6.04793e-05
6.52321e-05
0.000182426
0.000108982
0.000110175
9.03231e-06
3.26701e-06
7.11055e-06
2.52175e-05
9.03231e-06
1.31449e-05
7.11055e-06
9.03231e-06
9.03231e-06
3.01987e-05
1.85412e-05
0.000137268
2.13086e-05
9.03231e-06
5.95748e-06
1.41135e-05
1.24531e-05
1.31449e-05
9.03231e-06
2.69048e-06
7.11055e-06
9.03231e-06
4.36803e-05
1.57739e-05
1.09541e-05
9.03231e-06
1.85412e-05
7.11055e-06
1.85412e-05
1.09541e-05
1.57739e-05
1.57739e-05
1.57739e-05
1.03776e-05
3.11327e-05
5.18878e-06
4.61225e-06
7.11055e-06
7.24074e-06
1.31449e-05
1.09541e-05
9.60884e-06
1.15306e-05
6.53401e-06
1.85412e-05
1.85412e-05
1.57739e-05
1.31449e-05
3.38568e-05
2.70854e-05
3.26893e-05
1.85412e-05
2.40759e-05
7.11055e-06
9.03231e-06
1.92177e-06
1.09541e-05
1.7711e-05
1.96482e-05
1.03776e-05
2.40759e-05
2.13086e-05
1.17612e-05
1.85412e-05
6.44787e-06
3.11327e-05
2.49061e-05
1.93714e-05
1.15306e-05
2.69048e-06
4.32398e-06
)


// ************************************************************************* //
