/*--------------------------------*- C++ -*----------------------------------*\
  =========                 |
  \\      /  F ield         | OpenFOAM: The Open Source CFD Toolbox
   \\    /   O peration     | Website:  https://openfoam.org
    \\  /    A nd           | Version:  6
     \\/     M anipulation  |
\*---------------------------------------------------------------------------*/
FoamFile
{
    version     2.0;
    format      ascii;
    class       vectorField;
    location    "0.1/lagrangian/sprayCloud";
    object      U;
}
// * * * * * * * * * * * * * * * * * * * * * * * * * * * * * * * * * * * * * //


572
(
(26.1567 3.9923 -2.39016)
(28.3945 0.644115 -0.350388)
(36.1872 8.20382 -0.40154)
(25.8084 0.620214 0.952442)
(32.7996 4.90189 -8.58634)
(43.2742 1.44652 1.23444)
(31.6618 12.3041 1.01421)
(38.0823 -9.08623 4.65067)
(54.8031 -0.767478 1.74558)
(43.8061 -0.870788 -1.9259)
(43.2361 -5.21287 7.18917)
(44.3279 0.223708 0.948786)
(42.9531 0.670616 0.735164)
(40.6663 -2.56125 4.77504)
(26.4486 -0.233919 -1.35138)
(36.5196 -5.90292 0.0382392)
(36.7622 6.67651 1.38579)
(44.8247 -0.288059 -1.07179)
(46.5052 -1.27215 -4.52634)
(34.9626 -9.23088 -0.753721)
(36.9639 -2.21166 4.23061)
(46.8499 0.195536 -3.90197)
(55.1572 0.690554 -0.105988)
(48.8475 1.62877 1.58866)
(31.1143 -0.33148 -0.69813)
(55.8188 0.828555 0.308725)
(26.8679 0.884399 0.425394)
(50.6249 -0.390219 0.0897671)
(58.9435 0.166613 -0.276443)
(26.6603 0.538006 -1.30762)
(57.0158 -0.341571 1.70344)
(28.3848 0.29659 0.888274)
(27.5192 2.57329 -2.43319)
(56.2595 0.971275 -0.291114)
(49.2056 2.82464 -1.60067)
(44.064 -0.640303 -0.825373)
(54.6811 0.808127 -0.615952)
(36.9967 1.00295 -0.0190208)
(37.9101 -3.10843 0.99744)
(27.7508 2.44995 3.91045)
(38.6593 2.17508 0.452687)
(47.3809 1.05745 0.374633)
(41.5294 -0.313606 10.1345)
(33.3576 2.31446 0.310841)
(58.4129 0.908457 0.510544)
(47.1445 1.621 -1.09854)
(16.4483 2.66669 0.963759)
(39.7439 -0.664056 -5.01257)
(38.833 1.08862 1.41549)
(44.0487 -1.49894 1.26448)
(29.1204 -0.210149 -3.31127)
(61.8852 -0.0337413 0.164144)
(36.9794 2.12317 2.47823)
(41.2339 2.74128 1.26146)
(51.4676 0.770184 0.549007)
(41.9608 0.921176 -0.755862)
(42.7608 0.755168 0.299931)
(42.3155 4.04592 2.0896)
(46.4746 2.09086 0.235401)
(27.5647 3.68059 0.3458)
(56.8457 0.324838 0.0762905)
(41.3623 -3.19412 5.5352)
(46.1133 -2.62241 2.78274)
(49.6921 -1.68818 -4.72835)
(49.5209 -0.287768 0.463869)
(52.2645 0.195465 0.0012363)
(51.6482 1.20648 0.368908)
(39.266 2.58372 -0.782013)
(57.9649 1.92879 0.857533)
(39.349 0.0300024 -2.99744)
(40.8342 -0.337609 -5.65378)
(27.3059 -0.819234 -1.30806)
(45.2299 1.35887 -0.194651)
(38.2996 0.70799 -7.12199)
(38.5958 -0.901835 2.67029)
(50.8687 0.657707 -0.639939)
(36.7571 -0.183805 0.83914)
(47.6254 -0.838748 -1.27906)
(47.4795 1.25613 -0.816586)
(53.4204 1.42985 -2.23783)
(52.3019 1.19299 -0.00186437)
(54.4312 0.744498 0.500075)
(31.4079 0.767614 -0.355695)
(53.4224 0.297509 -0.19966)
(59.3559 1.12257 0.538441)
(57.172 1.08119 0.125826)
(34.1058 1.656 -5.77343)
(46.5585 -0.698199 -0.328375)
(55.6682 0.286773 -0.0492821)
(49.415 0.590096 0.333131)
(61.6353 0.488162 -0.231167)
(57.8693 -0.238919 -0.141026)
(41.424 -2.88704 -1.182)
(24.8319 5.49813 -2.69514)
(49.28 0.454754 0.477034)
(51.5189 5.88484 -4.83934)
(54.4787 0.23502 0.636281)
(45.4719 1.21267 -0.528345)
(49.7296 -0.0240215 1.08976)
(58.0124 1.24011 0.307767)
(58.3604 0.0484241 -0.0312687)
(50.8657 1.81964 0.535576)
(56.0049 -0.12164 0.0553804)
(37.5296 -1.98731 -2.83711)
(47.8927 5.03279 3.37625)
(56.8575 -0.1226 0.091734)
(59.8913 0.0848369 0.203545)
(40.9582 5.06432 0.251349)
(53.3221 -0.2047 0.189898)
(62.9153 0.3117 -0.119657)
(59.0342 -0.0501638 -0.234703)
(59.9567 -0.312174 -0.309366)
(39.9018 0.785511 -0.281449)
(45.0402 -0.491502 2.2102)
(50.617 -0.619491 -0.128671)
(57.5715 0.372997 -0.319261)
(56.8883 1.40871 0.534387)
(36.3599 0.712527 -1.45906)
(48.0041 1.44479 -1.0168)
(42.0818 0.738217 0.997086)
(61.6098 -0.329627 -0.514484)
(37.4718 -0.146658 5.35576)
(52.9918 1.0875 0.0274377)
(46.2451 -0.696382 1.62249)
(54.3712 0.264953 -0.663457)
(12.4101 1.40868 0.910018)
(9.78823 4.73102 2.17934)
(16.8104 -6.57473 -5.76104)
(13.2756 1.01174 0.103251)
(15.9854 2.84675 11.3421)
(35.9794 0.0762386 -2.60394)
(31.7421 -0.803927 1.11506)
(28.3401 0.274823 0.336537)
(23.7064 0.283444 -0.00828506)
(15.868 -2.65178 3.13508)
(18.0197 2.99384 0.832353)
(20.5683 -0.980179 -2.31011)
(26.2658 -1.45203 -1.23324)
(17.7959 -0.67423 -1.94594)
(22.4944 -2.99362 -5.34175)
(18.6577 0.937812 -0.737824)
(20.488 -2.03196 0.252923)
(26.0142 1.30239 0.361307)
(22.0234 -1.42241 1.11604)
(32.8912 2.07783 -1.99554)
(25.6581 -1.84549 0.392178)
(23.3194 2.38936 -0.0283656)
(29.0955 -1.84122 -2.02328)
(26.2456 1.0511 0.150619)
(22.0029 1.26164 1.2457)
(17.5058 4.60714 2.94863)
(31.1139 0.675832 -0.032058)
(10.7444 -2.50476 -4.64841)
(27.0251 -1.29643 4.8012)
(18.1052 2.51233 -5.31099)
(28.4286 -0.268079 0.682877)
(22.5059 -2.94646 2.07342)
(26.0006 -2.9668 -1.70761)
(19.8746 0.941076 0.0974415)
(22.4644 3.34312 -1.07456)
(20.8896 -0.0229414 -0.329051)
(26.6164 0.968069 -0.976828)
(14.9191 4.90571 2.33025)
(18.7719 -0.110276 -1.69305)
(31.9872 -0.533714 -2.18701)
(47.0267 -0.738929 0.257872)
(19.0614 0.722802 -0.13199)
(11.9648 7.43836 -2.91892)
(29.2798 0.432591 -4.47969)
(25.528 0.236641 2.66557)
(39.0973 -0.810162 2.63047)
(26.2622 -4.40701 7.02963)
(38.3524 1.0938 -4.66099)
(30.365 -0.463293 4.34325)
(21.6374 -1.96952 0.653302)
(11.787 9.03131 2.27588)
(24.4541 4.66347 -1.94003)
(27.8768 9.19505 6.97207)
(44.7886 -0.432298 0.572134)
(13.505 1.61533 -1.01081)
(8.98481 0.47208 0.222614)
(31.7586 2.67268 -0.979049)
(18.6465 -1.18896 2.23648)
(37.0276 4.79022 1.92553)
(35.2614 3.33849 0.182265)
(39.0529 0.481536 -1.16093)
(15.142 5.93067 -0.35382)
(23.2905 1.70331 1.27117)
(32.5065 0.269849 -0.264053)
(33.5523 -2.46003 -2.20807)
(14.0634 1.18433 1.82822)
(31.3657 -1.49417 0.509555)
(50.133 -2.27234 -1.19583)
(14.2974 0.609402 0.820776)
(32.3942 3.59501 0.404116)
(26.7247 1.10876 -2.32427)
(35.5811 0.457994 0.915435)
(52.455 -1.79593 2.3879)
(58.1479 0.388614 0.0148525)
(35.6348 2.43291 -0.981113)
(42.9101 0.575586 -0.446337)
(46.4845 0.779644 0.723957)
(41.274 -1.7411 -1.02136)
(39.8976 2.7529 2.69347)
(27.1808 1.71701 -0.926384)
(45.6742 -0.427394 1.91732)
(25.8278 2.28115 1.06058)
(28.4543 2.42221 0.29813)
(48.9558 -0.179831 0.49861)
(45.286 -0.236672 -1.4388)
(45.6042 1.68173 0.0219567)
(51.3889 -0.405685 -1.13261)
(34.5416 3.83007 -1.91158)
(35.2481 3.49333 0.597468)
(48.0992 -0.632884 1.2844)
(44.7758 0.235268 -0.926397)
(40.9001 0.641847 -1.72969)
(39.5426 0.0559333 2.04542)
(53.7642 1.01218 0.0711557)
(31.0275 -2.06041 3.05198)
(54.4931 -1.13647 0.289031)
(57.725 0.185659 -0.758703)
(30.0939 2.60066 -3.53925)
(55.1643 0.409786 -0.702125)
(44.7065 -0.581167 -0.261808)
(33.4753 -1.67464 2.17325)
(44.7868 0.0426851 -0.148078)
(35.2455 -0.397489 -0.194387)
(42.7461 0.475433 -0.538643)
(14.6113 1.72506 -0.0909714)
(26.3887 3.00372 -0.997724)
(35.7273 -4.21924 -11.9801)
(27.9396 1.17223 -0.735992)
(39.8817 -2.16484 -4.00977)
(36.4952 1.10812 -0.228214)
(29.6281 -2.53731 0.569635)
(47.2727 -0.322308 -2.19659)
(54.0212 1.84599 -0.204263)
(50.7763 1.62213 -0.757093)
(37.8029 -2.51218 3.92647)
(39.1289 -0.113573 -1.07614)
(58.4945 0.287758 -0.697483)
(42.8986 2.53202 -4.40522)
(23.2105 1.28948 -2.59438)
(30.0449 -4.66703 -2.7903)
(48.7683 -0.709912 -3.0013)
(53.6257 -0.835758 0.283668)
(34.9383 0.557213 1.20279)
(51.7359 -1.22549 2.42482)
(17.7192 5.95192 1.16621)
(29.9837 1.48508 -0.0948855)
(43.2365 -0.662677 0.503461)
(31.2344 2.11431 0.711453)
(39.6867 1.68716 2.6859)
(54.411 -0.083566 -0.909471)
(51.5652 2.73881 0.232821)
(41.0254 0.322998 -3.86905)
(42.4826 -0.680549 0.335799)
(53.2403 -0.0926116 0.0103044)
(53.1275 -0.242802 -0.442301)
(54.0147 0.011892 0.57646)
(56.2129 1.31724 -0.0670666)
(51.9199 0.99986 0.402547)
(49.3174 1.96486 -0.978001)
(41.103 0.456723 0.0463636)
(48.557 0.311728 0.0355686)
(48.8032 0.682048 0.966554)
(24.15 1.23867 -0.112547)
(50.9821 2.17075 0.663523)
(37.1904 0.606759 -1.66809)
(51.4327 0.386175 2.74516)
(47.2974 1.76334 0.344175)
(44.0429 -5.87266 -5.02409)
(40.5083 0.275697 0.76892)
(47.984 1.0254 0.72917)
(37.2492 -3.19015 2.65525)
(25.9313 0.642805 0.056346)
(49.3829 0.0684426 1.35012)
(45.539 2.06935 0.376886)
(54.5908 1.88941 0.526305)
(58.4259 1.73625 0.00485953)
(45.9781 -0.542348 0.509075)
(60.4102 0.861951 0.298021)
(31.588 1.19278 -2.5389)
(44.6412 2.97153 0.665023)
(60.2397 1.04782 0.234626)
(33.7351 1.88643 -8.05845)
(47.8814 0.242154 0.111736)
(36.0332 1.61859 -3.30762)
(49.9833 -2.68245 -0.142789)
(53.546 0.667873 0.489079)
(47.9242 0.784242 -0.959486)
(53.0118 1.78219 -0.338072)
(61.0919 1.68936 0.478507)
(37.8138 1.48954 -4.81126)
(62.7847 1.22573 -0.140473)
(39.9242 4.92 1.83023)
(60.209 2.22543 0.0116154)
(57.7498 0.751971 -0.0983378)
(24.9766 1.44025 -1.38502)
(64.8843 0.182836 0.0365446)
(45.6647 1.48278 0.753518)
(63.6071 0.447813 0.226408)
(25.3109 3.23779 -0.832299)
(61.3885 1.52823 0.0479113)
(53.7971 0.0996846 -0.663778)
(58.7424 1.28495 -0.00505878)
(29.4222 1.4862 -1.34571)
(59.4135 0.995504 0.512485)
(46.0669 1.36488 -0.415794)
(58.9546 1.5392 -0.339411)
(60.2877 1.38696 0.26898)
(58.2768 1.56129 0.227907)
(63.32 1.58065 0.0431521)
(64.3987 0.227343 -0.144307)
(43.4017 2.32693 -0.185326)
(53.9215 0.164307 -0.46327)
(52.0574 0.221192 0.608136)
(52.0914 2.70937 -0.152574)
(56.1907 0.933254 0.258586)
(57.7093 1.43206 -0.314456)
(64.3859 0.887435 0.18887)
(64.3216 0.567286 -0.293871)
(29.82 1.90122 -2.63116)
(61.0272 1.88333 -0.140201)
(65.1577 0.698799 -0.0606663)
(54.1627 -0.263661 0.262218)
(52.8889 1.83622 0.808301)
(59.1723 1.46715 0.686005)
(63.2528 1.60593 -0.0504509)
(62.53 1.74018 -0.422821)
(59.9865 1.58907 -0.421428)
(58.5393 1.39104 -0.655823)
(62.5289 1.41438 0.183286)
(55.2025 2.22105 -0.22091)
(51.6731 0.757598 -0.0369891)
(55.2844 2.6237 -0.0488639)
(63.3814 1.62526 -0.0641427)
(62.3203 1.74305 -0.100127)
(47.4704 1.74138 0.02858)
(58.1093 1.32139 0.506865)
(59.297 1.42406 -0.693182)
(34.9032 -0.156063 -0.604081)
(46.9199 2.44284 1.20524)
(58.4558 1.11422 0.253778)
(63.2906 1.52955 0.320394)
(56.9501 3.06383 -2.39279)
(64.3181 0.755315 -0.263276)
(54.5838 1.1465 1.03342)
(61.6811 1.63884 -0.108687)
(62.0798 -0.0105401 -0.0378605)
(42.5558 1.2583 -5.14352)
(61.8884 0.545763 0.132655)
(45.8901 1.55921 0.378398)
(50.3227 2.35291 1.08681)
(53.0784 2.61594 0.0814971)
(55.8899 0.973627 0.878523)
(49.9263 2.77582 0.357206)
(47.2187 -0.608687 -0.0248866)
(63.5167 1.67843 0.144248)
(63.9555 2.12327 -1.84833)
(59.5232 1.93427 0.363914)
(61.7582 1.47951 -0.386565)
(42.5215 2.35599 2.02875)
(56.9038 2.34953 -0.685658)
(51.8223 3.14037 1.23875)
(54.7589 0.289713 0.568618)
(57.565 1.65335 -0.213532)
(62.7953 1.97452 0.288666)
(59.5156 0.919946 -0.217259)
(56.6328 -0.639834 3.42225)
(46.3402 0.844816 -0.318761)
(51.3282 0.555847 -9.16833)
(54.7471 -0.196605 0.209978)
(63.5969 0.735531 -1.80412)
(62.6416 -0.0877126 0.282784)
(63.3469 2.76209 0.946212)
(63.0359 -1.07844 0.263045)
(55.2425 0.43604 -1.77964)
(58.8855 -1.48229 -0.413544)
(59.0008 3.23741 -0.105588)
(64.7473 1.3517 0.0834691)
(62.6756 2.6687 1.4256)
(57.2194 2.31083 -0.236255)
(65.4549 1.59453 -0.377708)
(40.1682 -0.149519 5.68663)
(30.2183 0.126675 -1.17304)
(56.6447 0.464218 0.170205)
(59.2541 -1.28855 -2.46959)
(46.7556 10.7475 2.97029)
(57.3189 4.28464 0.0353141)
(58.1778 1.43016 -0.776383)
(49.4931 0.779233 -3.30527)
(63.5781 2.95807 0.499334)
(62.2335 2.09127 -0.304876)
(63.5367 1.1787 1.46403)
(63.8446 1.12812 -0.100008)
(65.9208 0.490779 0.252231)
(58.191 2.6079 -0.621788)
(47.2229 0.986517 -0.333914)
(62.9164 2.06082 -0.720903)
(61.9358 2.44973 -2.25814)
(56.5691 3.58297 -1.20795)
(66.0938 1.46904 -0.30225)
(66.0224 1.35869 -0.0412445)
(59.9479 3.38548 -0.291959)
(66.7183 0.867468 -0.0450243)
(62.7752 2.71293 0.374684)
(63.9643 3.42892 -0.455313)
(49.6431 6.70102 -3.75927)
(66.2327 1.68615 -0.450765)
(49.6717 4.85717 0.213978)
(51.3907 4.54227 0.159603)
(61.4686 4.07843 0.358662)
(62.5542 3.82473 0.821473)
(59.5798 4.14429 0.0725411)
(65.9683 1.13004 0.0551633)
(48.6388 6.13307 0.125776)
(65.9984 1.10955 -0.253486)
(64.7861 2.53256 0.172482)
(63.1953 2.95381 -0.0321966)
(58.159 5.21164 -0.0386436)
(62.3346 4.44484 -0.309828)
(46.1664 10.516 0.36345)
(47.6685 7.14055 -0.307862)
(65.9934 0.98764 0.139436)
(65.0044 6.58853 1.00208)
(60.1814 3.12009 -0.139292)
(62.7493 2.96724 0.0681844)
(58.7731 4.42955 -0.142884)
(66.8056 4.25864 -0.0426978)
(54.9331 6.05619 0.568146)
(50.3635 7.11061 -0.869872)
(58.0439 5.13849 -0.067598)
(64.1648 2.67117 -0.389189)
(66.0196 0.623381 0.00381713)
(51.699 7.57011 -0.100548)
(61.2527 5.14075 -0.182302)
(59.9403 4.04388 -0.0443453)
(66.3256 0.362084 -0.0239701)
(54.6839 6.72324 -0.461519)
(63.6331 1.56541 -0.0619656)
(63.7989 1.76536 -0.0432955)
(66.0721 1.06089 -0.278465)
(66.3018 0.336232 0.00638147)
(58.6191 5.7045 -0.205099)
(64.9365 1.4957 -0.061768)
(62.5579 2.17897 -0.0939857)
(58.0004 6.97869 0.571197)
(49.9375 11.5753 1.78991)
(41.7194 10.4747 -0.0649328)
(61.728 2.7959 -0.0177066)
(53.315 7.77697 0.435722)
(49.8181 13.7592 -3.59363)
(56.0053 7.42496 -0.130889)
(66.4601 0.333467 -0.0149641)
(66.6391 0.25475 0.0570494)
(58.531 21.2266 -0.262672)
(57.1631 6.92872 0.206553)
(62.0728 4.70386 -0.210198)
(64.6619 2.79911 -0.433098)
(63.7942 2.73019 0.0317187)
(61.6058 5.021 -0.0677157)
(59.9175 19.1169 -2.44466)
(58.2662 17.3662 0.122923)
(48.3795 7.82794 0.126607)
(65.1209 3.90454 -0.0963411)
(60.8318 4.83662 0.340908)
(53.9086 12.4616 0.455228)
(58.4694 3.95994 -0.262132)
(61.3232 4.99815 0.129918)
(64.029 2.41199 0.283774)
(59.8735 5.71458 0.0955333)
(50.1654 6.3602 -0.0195799)
(66.8147 0.0919436 -0.0221996)
(65.7921 0.339824 0.125574)
(57.0968 5.71263 0.500596)
(66.7647 0.0637198 -0.00926353)
(66.5777 0.116011 0.0312544)
(64.4576 1.26121 0.430334)
(53.4605 3.79285 -0.177661)
(62.6986 1.05689 -0.584756)
(57.7915 2.897 0.0666217)
(59.6036 2.32405 0.312299)
(60.0249 1.97728 -0.0223547)
(65.8305 0.294796 0.0821341)
(61.215 1.77408 -0.0223211)
(62.9189 0.723964 0.267591)
(65.2817 0.0503645 -0.325264)
(59.4035 0.767734 0.116976)
(66.2949 0.115942 -0.040142)
(57.3561 2.18279 -0.182279)
(55.5762 2.43819 -0.228855)
(64.7005 0.188205 0.0603645)
(66.5713 0.0736291 0.0367062)
(65.8167 0.152017 -0.016989)
(66.0776 0.0812849 0.0973584)
(66.8216 0.0167127 -0.00779834)
(58.8597 -1.31152 -1.24079)
(63.7689 0.133863 0.127434)
(66.1896 -0.120456 -0.0592581)
(66.7753 0.0419924 0.0467804)
(60.245 1.15297 0.075672)
(50.1765 4.62675 -0.570271)
(65.9508 -0.0244456 0.0509528)
(54.8244 2.05674 -0.341751)
(57.8509 1.87564 0.018974)
(56.174 2.14955 -0.18803)
(64.8937 0.0956527 0.0196743)
(58.8198 1.10723 0.364039)
(66.6371 0.0753673 -0.000872364)
(62.8564 0.552073 0.0152208)
(64.7882 0.0785221 -0.192394)
(67.1025 0.246209 0.00880565)
(64.6933 0.131459 -0.0178034)
(64.7111 0.211036 0.0204043)
(62.1042 0.562495 -0.0401031)
(62.6981 0.708878 -0.14834)
(66.692 0.314506 -0.0257763)
(61.945 0.633113 -0.0507734)
(67.4315 0.149087 0.0299069)
(65.4175 0.311684 0.0363083)
(65.0047 0.272194 0.0560714)
(63.6976 0.334719 0.225067)
(68.1952 3.27099 0.645592)
(65.0079 0.3066 -0.0818754)
(66.2986 0.354614 0.0329005)
(63.1199 0.46037 -0.0511178)
(59.6846 1.11016 -0.0748624)
(66.9345 0.281856 0.0101437)
(66.1511 3.12417 -0.0562713)
(52.3912 18.2534 -1.58544)
(66.9687 0.261769 0.0145665)
(66.1656 0.366906 -0.0150182)
(54.4093 4.11998 0.0913573)
(65.168 0.26588 -0.0701859)
(63.1226 0.63904 -0.00640312)
(53.2835 5.32086 -0.171393)
(63.0667 0.737518 0.142405)
(62.1234 1.39834 0.189983)
(50.7686 7.05863 -0.915009)
(55.8276 3.0678 -0.224486)
(61.0186 1.77143 -0.0136924)
(42.5804 11.2763 -0.148275)
(62.449 1.33253 -0.0236781)
(66.2679 1.80943 -0.301465)
(62.4835 4.71094 0.610686)
(49.5765 5.61564 0.0862472)
(62.5502 1.37492 0.043674)
(68.9046 1.50306 -0.551876)
(66.6746 2.54738 -0.113462)
(67.1091 2.8062 -0.0428064)
(66.6798 0.387082 -0.0336878)
(63.1786 4.98276 -0.00605809)
(68.0572 5.35072 0.0934154)
(66.4815 2.54797 0.102702)
(66.1339 4.21465 -0.234509)
(65.4527 6.71762 0.247844)
(64.4197 2.40639 0.0590424)
(66.9865 0.429175 -0.27345)
(53.556 4.93661 0.0573454)
(66.6504 0.442892 -0.00353099)
(66.4611 0.513026 -3.58115e-05)
(66.8879 0.605611 0.0242479)
(65.1887 1.59239 -0.0851313)
(66.9419 0.365152 -0.00127765)
(66.5073 2.13302 0.0115947)
(66.8623 0.434223 0.0074603)
(66.8577 0.397415 0.00860305)
(66.0273 0.293123 0.00330946)
(65.5583 0.177046 -0.000562488)
(66.9221 0.0450423 0.000756394)
)


// ************************************************************************* //
