/*--------------------------------*- C++ -*----------------------------------*\
  =========                 |
  \\      /  F ield         | OpenFOAM: The Open Source CFD Toolbox
   \\    /   O peration     | Website:  https://openfoam.org
    \\  /    A nd           | Version:  6
     \\/     M anipulation  |
\*---------------------------------------------------------------------------*/
FoamFile
{
    version     2.0;
    format      ascii;
    class       vectorField;
    location    "0.1/lagrangian/sprayCloud";
    object      UTurb;
}
// * * * * * * * * * * * * * * * * * * * * * * * * * * * * * * * * * * * * * //


572
(
(5.47576 3.64202 -2.37282)
(-1.60016 6.87307 3.05165)
(5.94513 10.2606 -0.575342)
(2.80615 -2.86814 0.675617)
(1.06719 6.70573 -9.78591)
(0.0756853 -0.0258288 -0.59812)
(-4.91232 5.30492 2.59271)
(-0.934121 -10.2899 5.39395)
(2.29733 5.26494 17.298)
(-0.16269 -2.71749 -0.264297)
(1.8678 -7.3897 10.5474)
(-0.872914 -2.71517 -0.228849)
(-0.237954 -0.817274 -0.206099)
(5.90563 -5.45672 5.78988)
(-0.533051 -0.732933 -1.39788)
(3.94342 -6.74784 0.0341169)
(12.3412 6.25012 1.38702)
(-7.59761 5.13899 -1.0131)
(1.22221 -0.18027 -5.99814)
(-5.21386 -10.1893 -0.586076)
(-2.04822 -2.28808 4.23885)
(-4.37698 1.72231 -8.68646)
(-1.37957 -5.29816 -1.03505)
(6.62896 12.118 10.5654)
(0.52232 -0.711564 -0.0558315)
(-1.97157 14.8574 -0.635585)
(0.285015 -0.166142 0.972155)
(-1.73788 0.908818 -0.313557)
(4.82069 1.57655 -0.107916)
(-0.690685 0.897147 0.459244)
(4.1458 -1.48923 -0.0825128)
(-1.36467 -1.05461 -1.0944)
(-2.12877 6.20833 -7.58152)
(-3.67095 4.18862 -1.93949)
(1.18658 5.69567 -3.225)
(3.54945 -4.47231 -4.99869)
(0.213707 -3.72766 -5.24151)
(0.086713 0.21524 -0.0677171)
(0.897129 -9.75469 2.75124)
(-8.06921 1.39751 3.91297)
(2.21132 0.701008 0.381558)
(4.13642 -1.01993 2.26276)
(-4.75337 -3.15622 12.622)
(0.679077 2.01937 0.723361)
(-0.601605 3.17327 7.28136)
(1.31933 1.15158 -1.11196)
(2.10328 2.11872 0.966061)
(-1.88613 -1.62819 -5.03772)
(2.92099 3.73722 -6.95276)
(-0.399967 -2.30757 1.29356)
(-7.32174 5.18147 6.17856)
(4.15968 -4.62816 -3.82582)
(5.89851 1.60127 3.31096)
(0.0936065 0.291206 0.259623)
(1.3871 3.45243 -3.50828)
(0.0903006 0.590213 -0.0988991)
(-0.399972 -0.111845 0.158167)
(1.92429 3.48041 2.44717)
(2.5098 1.62051 -0.0374862)
(-0.18371 3.77592 -0.7257)
(4.35065 -1.98057 2.36358)
(5.69197 -4.42615 5.61746)
(9.82858 -3.34424 -1.13136)
(1.62309 -2.70384 -5.70052)
(0.884375 -0.353985 1.50767)
(0.149957 -1.22566 0.16838)
(3.56487 5.29364 7.93677)
(-2.97707 -1.8534 0.523409)
(5.45397 4.84875 3.87121)
(0.286227 -2.79973 -0.283434)
(0.144194 -1.53767 -5.85621)
(-1.77641 -13.7687 -0.339022)
(0.671177 0.119601 -0.372614)
(4.15914 -0.651372 -7.12601)
(1.62811 -4.89296 3.84122)
(0.936156 2.28175 0.954008)
(-8.5362 -0.3046 1.68277)
(1.44492 -2.34331 1.89493)
(-0.108979 0.694572 -1.04137)
(3.94147 0.641298 -3.08113)
(-0.361525 -0.213526 0.193205)
(-2.62782 1.99871 -1.35184)
(-0.15737 -0.198585 -0.37918)
(0.774245 0.993894 3.52109)
(2.08377 -3.88978 2.77162)
(-0.880706 0.341717 2.63759)
(1.73506 0.769355 -5.77958)
(-0.219413 -0.495323 0.291282)
(-0.640091 -2.47602 0.990148)
(2.33162 -0.30658 -0.18245)
(-0.00590462 0.00593366 0.0179154)
(1.74663 -2.4038 1.64897)
(-0.288934 -4.57188 -0.731744)
(-6.52894 4.38492 -2.69513)
(-3.73774 -5.33151 -1.79365)
(1.25137 7.3915 -1.86299)
(-3.05949 -0.115432 1.98993)
(0.597393 6.52426 -5.28556)
(-0.0667886 -0.646182 1.80264)
(2.93591 -1.44666 4.22798)
(5.11996 -0.0522548 1.36657)
(3.84084 5.87474 4.29831)
(3.24305 -1.04478 -3.1865)
(0.0775321 -2.81057 -3.55722)
(7.83522 5.92722 6.60181)
(-1.39548 0.278309 -1.50448)
(-0.258317 0.779094 0.21087)
(-5.4057 6.07592 0.294026)
(-0.676838 -0.186331 0.193157)
(2.73701 -5.26041 -2.78095)
(-0.129601 0.775542 -0.23114)
(0.190991 0.83823 0.181554)
(-0.00149633 -0.00104758 6.33626e-05)
(-1.39419 0.855342 2.92192)
(0.186908 1.04831 -0.425803)
(2.86841 1.59012 -1.0988)
(-1.70591 -4.01474 0.668457)
(0.912192 -0.217433 -0.658545)
(5.16735 -1.60051 -4.86063)
(4.38883 0.957858 2.67072)
(0.50093 -0.618773 0.116533)
(2.18665 -0.6102 5.41837)
(-1.22152 -3.03736 2.49392)
(-0.951296 -0.189887 2.35464)
(0.255503 0.364331 -1.46017)
(0.706192 1.33462 0.910671)
(0.431298 4.69693 2.17919)
(1.18641 -7.40439 -6.03379)
(-3.66094 1.16431 0.0951044)
(1.42855 2.8852 11.7904)
(21.3483 -1.42223 -8.26287)
(2.99454 0.248623 1.6414)
(0.0219283 -0.0109785 -0.0267742)
(-0.118873 -0.0303701 0.600063)
(0.0126517 -4.51545 3.85431)
(0.0261717 2.88364 0.867261)
(-0.17807 -1.18434 -1.97928)
(0.73502 1.37046 1.90653)
(-0.51963 -0.698824 -1.92661)
(7.25525 -3.5064 -5.47895)
(-1.19518 2.11596 1.22525)
(-3.15402 6.64207 -3.7953)
(0.706065 1.40408 1.02504)
(-0.216605 -0.0623795 0.740263)
(3.72155 -2.72018 1.14926)
(-4.04804 0.567493 0.233576)
(-6.2457 2.17335 -1.86005)
(-6.66894 -10.7341 -6.29936)
(0.0606556 -1.02135 -0.103263)
(-1.40207 1.23595 1.4564)
(1.31855 0.218325 1.92146)
(7.24594 0.241214 0.316467)
(-1.14466 -3.92121 -5.43394)
(-5.07855 -4.04304 4.00262)
(1.52795 1.89503 -5.60117)
(2.79359 -3.0221 -0.162469)
(3.58937 -3.23235 2.0561)
(1.34146 -3.33479 -2.0239)
(0.26323 0.322501 0.217663)
(7.5034 6.33994 -0.226231)
(0.486045 -1.73815 -1.5581)
(-2.41605 0.223727 -3.49708)
(-5.61345 4.56057 2.45128)
(0.416057 -1.2001 -2.06855)
(-0.0163598 1.39007 2.09745)
(0.78384 -2.26511 0.576883)
(-0.258936 0.202766 0.132676)
(-2.09509 6.71028 -2.91808)
(10.9644 -0.438128 -4.79488)
(-9.77231 -5.36226 3.1666)
(-13.5654 -0.981488 10.6498)
(-0.587603 -4.80147 10.4941)
(-3.19778 -0.419455 -11.9785)
(4.72552 -2.3622 5.71623)
(-1.64202 -3.42948 0.273819)
(-4.05732 8.29494 2.27323)
(3.9134 0.961128 -0.0884644)
(6.63314 8.7066 7.03845)
(-0.0737833 2.65182 -0.348222)
(-10.124 0.922827 -1.03861)
(-1.07109 0.0655094 0.229842)
(-0.842482 3.2326 -2.14901)
(4.17587 -2.46883 2.42697)
(5.55973 8.26186 4.59261)
(-3.78301 5.65671 2.75884)
(0.55157 7.73525 4.96244)
(-12.7807 5.80323 -1.08502)
(-0.0225089 1.02591 1.13624)
(-0.0412458 -0.764515 0.586002)
(0.926339 -5.26453 -4.99506)
(-8.34533 0.313592 1.88754)
(-3.15138 -17.2872 1.31892)
(1.25186 -1.20533 -2.38695)
(-0.0832961 0.195629 1.38857)
(1.10912 5.20602 0.723527)
(-1.92192 0.807013 -2.39188)
(0.810537 -1.30646 -3.7382)
(1.53642 -2.59005 3.25858)
(1.07803 0.516401 -0.328118)
(0.268653 3.70238 2.04801)
(-0.752368 2.80959 1.38888)
(3.59193 9.45785 3.56204)
(10.6533 -4.82368 -4.05053)
(-0.0113937 4.23128 4.01346)
(-5.5969 -5.54406 -4.28563)
(0.487171 0.279076 -0.107661)
(-0.28127 1.90115 1.07463)
(-4.44809 9.87666 0.355272)
(2.81353 -0.515035 2.27212)
(-3.10395 -5.38053 -3.34835)
(-8.01413 -1.66114 1.70055)
(-0.4392 -8.78464 -1.78176)
(0.312416 3.95835 -1.84965)
(-1.51409 2.50526 1.30008)
(1.04315 1.7489 4.23649)
(4.01278 -1.45884 -6.14798)
(0.479766 1.62025 -0.982071)
(2.22083 2.1986 5.68475)
(-1.85301 -3.56357 -3.23191)
(0.35348 3.44315 0.440245)
(2.24447 -3.61337 -1.45001)
(-0.439737 -0.329173 0.213527)
(-3.51516 5.88359 0.045852)
(0.633372 5.94449 -0.220872)
(1.277 -0.959159 2.82823)
(0.434551 -1.84691 2.18408)
(-1.65648 1.33445 -0.82879)
(-0.154488 -0.0345793 0.127258)
(4.18405 -1.21681 -1.20196)
(0.20738 0.474635 -2.42655)
(5.86711 1.05392 -0.0537782)
(4.63573 -4.90876 -12.2948)
(1.90919 0.756645 -1.19769)
(1.90744 -2.99957 -4.00958)
(1.95537 0.129758 -0.189497)
(0.586343 -4.71848 0.968059)
(-2.41698 -0.744809 -3.07485)
(0.518597 -2.03249 1.41799)
(-1.11818 0.594321 -2.87409)
(2.64712 -4.51307 5.74863)
(0.845482 -2.07425 -1.29225)
(-0.959428 1.09955 -0.691948)
(0.710622 2.80857 -5.69819)
(0.275773 0.502514 -2.59134)
(11.4959 2.09856 4.35492)
(2.47766 -0.805527 -3.01999)
(0.904844 1.36451 -1.72151)
(-1.48942 -7.85907 4.63307)
(2.15848 -1.04979 3.6167)
(0.464771 5.09727 1.16558)
(5.23415 1.14568 1.31262)
(-0.90855 -0.835857 0.565165)
(-2.46866 1.69199 0.74672)
(0.949521 2.24664 7.77244)
(1.07899 -0.19466 -1.23686)
(-1.3959 0.411477 0.690258)
(-2.48628 0.0772991 -4.33184)
(-0.400973 -1.66617 1.59276)
(1.25606 -1.51241 0.794977)
(0.723038 -1.22367 -1.75769)
(4.62116 0.317249 1.46541)
(9.33145 -0.261262 -0.283651)
(-1.26108 0.316589 -0.525861)
(-2.62536 -1.91154 -1.09968)
(-0.0727645 -0.0347728 0.0646443)
(-0.17764 -0.43883 -0.058394)
(0.934228 1.59383 1.24106)
(-1.05767 0.0257138 0.268416)
(0.439824 2.06321 1.28161)
(-0.720664 -0.711601 -1.15486)
(1.26015 -0.415889 1.32426)
(0.711219 0.505083 0.254943)
(3.15392 -6.91678 -5.13925)
(-0.591068 -0.423203 1.30839)
(0.409763 -0.239503 -0.130214)
(-1.82527 -4.32654 2.65757)
(-0.399742 0.365503 -0.210176)
(-1.87108 -1.93939 5.47705)
(-11.111 6.28769 -0.250191)
(2.95075 1.76622 0.345498)
(-0.107177 0.496913 2.19629)
(-1.01278 -0.998827 -0.472801)
(-0.544474 -1.21149 0.750506)
(-2.11332 -0.356411 -2.56362)
(4.01733 4.88233 2.88017)
(1.8986 -3.58981 3.43176)
(0.830022 0.271086 -8.14798)
(0.987132 -0.691348 -0.173371)
(9.15363 -0.555529 -4.56816)
(1.51505 -3.13862 -0.219603)
(2.22884 0.424261 0.50797)
(-2.68656 0.581102 -4.30634)
(-0.0977473 -0.681992 -2.25065)
(-2.56845 2.43629 -0.957338)
(-1.12362 0.364721 -4.85378)
(0.50824 1.35127 -2.26561)
(1.0468 3.67698 3.17556)
(4.10294 1.78481 3.74623)
(3.10539 -0.686197 -0.245186)
(3.11419 -0.0769533 -1.47557)
(-1.61643 1.28311 -2.70218)
(-0.32989 0.675282 0.755885)
(-0.856372 -2.33834 0.368995)
(-0.978821 1.52191 -2.65848)
(0.0100793 -0.437698 0.419784)
(-0.487077 -2.51499 -1.57704)
(0.24295 -0.470902 -0.127867)
(1.09759 -1.5433 -0.962609)
(3.10491 0.851859 0.775427)
(-0.530727 -0.213341 -0.118842)
(0.379912 2.05756 1.56203)
(0.598679 0.600739 1.12413)
(0.393785 0.136236 -1.39552)
(-0.0139486 1.33347 1.46602)
(0.686343 -0.66801 -0.0447789)
(0.99043 0.977322 -0.125624)
(0.412101 -1.81902 0.169319)
(-2.56982 -1.43949 1.43383)
(0.927728 -0.0181217 -5.07506)
(0.0910733 0.167169 1.0302)
(-0.825225 0.0838271 -0.260011)
(-0.10908 -0.0549747 0.0683902)
(-0.618368 -0.144483 -1.39534)
(-4.07351 1.82468 -3.30702)
(-0.0963009 0.683584 -0.0419888)
(1.62141 1.19786 3.23323)
(-0.480264 -1.42102 0.872254)
(-0.936197 0.567963 -0.320301)
(0.113019 -1.6049 3.85458)
(0.500756 0.650088 -1.44939)
(0.0901201 0.369738 0.277868)
(0.90924 -2.9953 -1.62422)
(-1.15491 2.04695 -2.0091)
(-0.812786 -0.621599 0.414294)
(0.00861207 0.201504 0.343335)
(1.92841 0.0956037 -0.185525)
(0.219739 -0.0177073 0.0983832)
(0.0213672 0.0177607 -0.0883981)
(-0.0474767 0.0315238 0.0532503)
(1.41313 2.66613 -1.72739)
(-0.158659 0.10353 0.406239)
(0.0302468 0.806295 -1.91232)
(0.0206455 -0.410401 -0.52338)
(0.849922 -0.786255 -4.75006)
(0.0173023 -0.24449 2.16663)
(0.0951975 0.464247 0.174477)
(2.50016 5.72789 -3.01481)
(-3.11791 -2.99734 -2.61749)
(-3.1664 -0.58496 3.6161)
(2.32488 0.102203 -0.74079)
(0.163679 -0.404697 0.103193)
(-1.80289 1.15318 -5.18346)
(-0.628968 1.2131 -0.74618)
(0.0778111 1.06655 0.0563457)
(-2.22942 -1.37314 -0.0180288)
(-0.118468 -0.0446429 0.151456)
(-4.2445 1.53444 1.26355)
(-0.150961 0.429609 -0.469933)
(-3.05907 -2.75446 -0.108505)
(-0.341481 0.51547 0.0240705)
(4.23577 3.99217 -3.1831)
(-2.60126 5.2699 0.921022)
(3.06641 7.19555 -5.37937)
(0.185923 -0.180048 0.207537)
(0.405071 -0.717744 -1.15256)
(1.36327 5.71775 2.74796)
(-1.92368 -0.172683 1.61841)
(4.42428 -1.18562 1.46947)
(1.36332 -0.572746 -1.4581)
(0.0279508 0.571054 -0.566918)
(-0.714372 -2.86047 3.02772)
(1.28417 -0.0967736 0.637645)
(1.7124 1.1676 -9.16915)
(-3.64211 -0.828694 -0.051794)
(0.1508 -0.150645 -0.0743688)
(-0.486851 -0.457943 0.27088)
(0.905575 2.56436 -0.665166)
(1.25587 -1.69992 0.337163)
(-1.76011 -2.61522 1.27808)
(1.89538 -1.91063 -3.01903)
(-2.98381 -0.152552 1.70472)
(1.25041 0.921452 0.463055)
(0.91546 -6.04005 -0.339552)
(-0.493122 -0.516876 1.13759)
(0.0897895 -0.788467 -0.923615)
(5.69989 -0.703232 6.29706)
(-2.4174 -0.63176 -1.1564)
(0.26579 -0.641879 0.206522)
(1.84183 -1.80918 -2.65665)
(-1.88284 12.5279 2.29949)
(0.0909714 3.43865 3.47802)
(-0.383304 0.464753 0.142559)
(-5.12305 -1.97191 -7.15896)
(0.00799351 3.02078 -0.816105)
(-0.172769 0.0172027 0.442989)
(-3.38827 -0.460083 3.20439)
(-0.237408 -0.853732 -0.46716)
(0.18643 -0.276843 0.281233)
(-1.40942 -2.88379 -2.25706)
(-6.95701 -2.0617 1.39361)
(2.68223 0.387671 -2.58112)
(0.138638 0.516937 -3.77776)
(-0.897402 0.578751 -1.86063)
(0.0825372 -0.139121 -0.946895)
(2.65599 0.108925 -4.25102)
(-0.236825 0.78639 0.255186)
(0.0994326 0.665061 -0.20049)
(-1.72689 0.661491 1.49143)
(1.55928 0.544625 -0.612489)
(3.38886 2.52756 -3.79693)
(0.492662 -0.091184 -0.179331)
(-0.513091 0.107579 -0.264935)
(0.0257992 0.290538 0.157522)
(-0.880536 0.605265 0.418689)
(1.8448 -0.102169 0.166282)
(-3.7446 -2.18897 -0.362853)
(-0.0148155 0.00598904 0.0224182)
(-0.00422185 0.0333689 0.0600907)
(-1.57905 -1.04701 0.792462)
(-1.96601 -0.411535 0.626142)
(-0.139516 0.0204514 -0.117182)
(0.777671 -0.75413 3.79425)
(1.07056 -1.72389 -0.853117)
(2.24775 1.27359 0.475594)
(1.36839 -1.29482 -3.12667)
(0.000340342 0.00401106 -0.00203878)
(0.0863993 0.799317 0.989503)
(0.132683 0.200353 0.130319)
(-0.928004 -1.00776 -1.01313)
(-0.177382 0.968423 1.94958)
(-0.664854 1.17422 0.86515)
(-1.04303 -2.88049 1.25231)
(-0.208722 0.874097 -0.646046)
(-2.89501 2.05975 2.50029)
(-0.234923 0.866932 -0.285675)
(-0.150761 -0.331669 -0.592568)
(-0.0843909 -0.0660565 0.00268353)
(0.0566568 -0.0561086 0.106592)
(2.40409 -2.03252 0.851112)
(-0.458533 -0.790725 0.0949505)
(4.19509 1.0003 0.303654)
(-1.67253 -1.5291 -1.81369)
(0.0482759 0.107078 -0.30189)
(-2.07012 3.52564 -2.16169)
(1.59567e-05 0.000158304 3.37998e-05)
(0.00449844 0.0388733 0.0310408)
(-0.571331 -1.46795 -1.30541)
(0.0744801 -0.0148563 -0.0486835)
(-0.246365 -0.532495 0.0120927)
(-0.19738 -0.113574 0.00348288)
(0.0119182 -0.114883 -0.0678632)
(0.267004 0.583918 -0.281772)
(-2.46947 -1.41074 1.83222)
(2.4673 -0.115279 -4.07718)
(-4.37758 -0.831486 0.282285)
(1.23857 -0.201973 0.246858)
(1.20518 -1.00158 0.637889)
(-1.15789 0.58355 -1.0819)
(0.606653 -0.832645 -0.199799)
(-0.0839304 0.118931 0.076454)
(0.721766 0.716272 -0.559994)
(1.27428 -0.89989 1.48261)
(2.94324 1.02402 -1.6574)
(-1.14787 1.1117 -2.78267)
(1.74389 1.30755 1.31696)
(-0.707495 -2.10179 -1.18579)
(0.325624 0.0612033 -0.301011)
(0.0179409 0.361489 -0.0384104)
(0.249457 0.517144 0.382314)
(-0.334564 -1.40644 0.446772)
(-0.242194 0.294863 -0.469292)
(0.967958 3.45285 -0.210496)
(-1.23862 0.881905 0.19325)
(-1.93026 2.79081 0.582086)
(1.58281 -0.485975 -0.602235)
(2.23354 -0.92897 -2.35714)
(1.05041 -1.21241 0.921878)
(0.0416884 1.24448 -2.05349)
(-0.872476 -1.69058 3.94311)
(1.70419 -0.669044 -0.792884)
(-2.26714 -0.297757 0.30472)
(-0.101816 0.0769082 -0.142499)
(2.05907 -0.531339 1.22144)
(0.173328 1.38588 0.883764)
(-0.345369 0.57118 0.174662)
(-0.000887644 0.443193 0.498922)
(0.000900767 0.240248 0.72633)
(0.291524 -0.339229 1.66968)
(-1.14866 -1.00446 -0.43237)
(-0.21919 0.0950189 -0.613138)
(0.40464 -0.105229 -0.422692)
(3.10845 -1.32158 0.961653)
(-1.03965 -0.80945 3.70457)
(0.0220452 0.0266069 0.00394427)
(0.0388148 -0.00152727 0.53776)
(0.716789 0.52519 0.284577)
(0.303235 0.303566 -0.289937)
(-0.256721 -0.114463 -0.231919)
(-2.64873 -2.41971 -1.53191)
(3.23671 -1.34233 0.621127)
(0.364645 0.104216 -0.190466)
(1.74065 0.375131 -1.11506)
(-0.262854 -1.29714 0.33133)
(0.436348 0.379584 0.336508)
(-0.0706155 -0.4508 -1.17123)
(0.00690349 0.0583856 0.117914)
(0.367284 -0.046595 0.238371)
(0.575829 1.1211 1.12222)
(0.03336 -0.187109 0.107512)
(-0.783529 0.950066 -0.0477228)
(-0.0260135 0.00894969 -0.0229079)
(-3.42305 -0.0635675 0.852694)
(0.0283964 -0.447223 -1.20585)
(-1.50459 -1.34159 -0.474192)
(-0.374115 0.650217 -0.620906)
(0.0580952 -0.114287 0.0375474)
(-2.91561 0.0106323 -0.865273)
(0.222894 1.14296 0.094644)
(-0.922671 -1.06465 -1.66987)
(-0.0416701 -0.0383668 -0.362513)
(-0.390178 -2.41457 0.314922)
(1.97883 -0.335589 0.299055)
(0.127879 1.64909 0.895087)
(2.1802 -2.7126 1.95035)
(3.51125 2.13787 0.730548)
(-0.893797 -1.4408 -2.17506)
(-0.657025 -0.374045 0.627841)
(0.551969 0.110407 -0.0505769)
(-3.14283 2.28445 -2.34709)
(-0.0355266 -2.03037 0.815898)
(-0.230966 -0.0243651 0.0608842)
(-0.313241 1.78437 -3.69866)
(-3.75208 -0.00993789 2.33816)
(-1.59907 3.39391 -0.935648)
(-3.13845 0.826769 -2.25731)
(-1.91202 -2.01035 -1.54342)
(0.227252 0.014389 0.129007)
(-0.607361 0.0806008 -0.959876)
(0.683828 -0.213791 0.40411)
(-4.22382 2.60577 -2.70259)
(1.19323 -4.01391 -5.5074)
(0.222936 0.426009 -0.460101)
(1.72156 0.472187 -2.734)
(1.76713 -0.525128 -1.81732)
(-0.0851074 0.0707795 0.0279877)
(-0.46468 1.77393 -2.22037)
(-0.613589 -0.638076 0.744089)
(0.418054 -3.0819 -0.466069)
(0.675733 -0.790082 -0.31849)
(-3.44957 1.6952 -2.45091)
(1.49359 -3.14997 -0.622156)
(-3.44608 -7.91658 -2.02393)
(-0.283546 0.0558792 -0.74532)
(-0.561567 -0.521602 -0.0157887)
(0.944386 1.21358 1.01349)
(-5.45548 2.80117 2.64385)
(3.55934 -1.37785 6.03887)
(-1.10771 -2.152 -0.40166)
(1.54934 1.92579 0.851354)
(-4.7884 2.5681 -5.69257)
(0.0337812 1.4558 -0.269139)
(0.156227 0.16631 -0.180283)
(-0.00743576 0.00715442 -0.0609838)
(0.537185 -0.0789897 -0.227078)
(-0.688557 2.00658 -1.07481)
(-0.120489 0.346931 -0.492293)
(0 0 0)
(0 0 0)
(0 0 0)
(0 0 0)
(0.413919 -0.0430676 -0.0250001)
(0 0 0)
)


// ************************************************************************* //
