/*--------------------------------*- C++ -*----------------------------------*\
  =========                 |
  \\      /  F ield         | OpenFOAM: The Open Source CFD Toolbox
   \\    /   O peration     | Website:  https://openfoam.org
    \\  /    A nd           | Version:  6
     \\/     M anipulation  |
\*---------------------------------------------------------------------------*/
FoamFile
{
    version     2.0;
    format      ascii;
    class       scalarField;
    location    "0.1/lagrangian/sprayCloud";
    object      y;
}
// * * * * * * * * * * * * * * * * * * * * * * * * * * * * * * * * * * * * * //


572
(
2.20342e-05
0.00112522
0.000143479
0.000386044
7.09614e-05
0.00202892
0.000712974
4.48162e-05
0.00437864
0.00176347
0.000132849
0.00319361
0.00214276
0.00016357
6.35511e-07
6.31368e-06
8.13579e-08
0.00769922
0.000352667
1.31266e-05
1.12588e-06
0.00163612
0.00763428
0.00161991
6.91287e-05
0.00795233
0.000296677
0.00239657
0.0098241
0.000390634
-0.00204771
0.000214308
0.000438712
0.00650963
0.00108306
0.001676
0.00487175
4.83101e-05
0.000199094
3.11043e-07
7.33143e-05
0.000627482
0.000294469
0.000395784
0.00404624
3.65423e-05
8.23785e-07
3.95086e-06
0.00322696
6.16894e-06
0.000896532
0.00284202
3.85682e-05
0.000443207
0.00172326
2.32635e-06
0.00026542
7.26149e-05
7.92981e-05
0.000192154
0.00309437
4.46537e-07
9.35876e-05
5.1278e-05
0.00121732
0.000427931
0.00167732
0.00152986
0.000807918
0.000687023
5.36196e-06
0.00142726
9.22584e-05
1.29644e-07
7.8248e-05
0.00123627
0.000296458
0.000433899
5.25114e-05
2.48251e-05
0.00110168
0.000278314
2.2929e-05
0.00355363
0.00271919
0.00116922
4.94047e-07
0.00107843
0.00343306
4.19044e-05
0.00756166
0.00354837
1.22128e-05
1.989e-08
0.00342654
8.1905e-05
0.0016526
0.00112037
6.24446e-05
0.000321268
6.61511e-05
0.000560065
0.00131066
1.66733e-05
5.81673e-05
0.000367201
0.000402014
6.90379e-05
4.68921e-08
0.00441177
0.000179576
0.000460188
3.05506e-05
0.000919601
0.00043018
0.000350552
0.00299019
7.92902e-06
0.000313305
0.000127349
-0.000210718
2.44756e-07
0.00826643
1.98101e-05
-5.5384e-07
2.50185e-06
7.53438e-09
5.58309e-05
0.000173255
1.90725e-05
0.000374403
0.00309366
0.00512191
0.00193012
9.91018e-05
1.50195e-05
0.000157897
0.000601932
1.21732e-05
2.43139e-06
0.000159188
0.00124863
0.000708152
1.70163e-05
0.00305122
0.00242519
0.00137116
0.00508364
0.00171011
0.000222774
-4.82208e-05
0.000344903
3.54305e-05
0.00149194
3.45738e-05
0.000869551
2.42613e-08
8.45095e-05
0.000327419
7.82422e-05
5.27664e-06
0.000826575
8.32287e-05
2.04161e-05
0.00212356
0.0126905
1.51376e-05
4.76852e-07
6.34578e-05
0.0022228
0.00855877
0.00024811
0.00674445
0.000303525
0.0002567
8.96642e-06
0.000336222
3.46171e-05
0.00940289
4.74687e-05
1.39319e-06
0.000655874
0.000130982
0.000783546
0.00212912
0.00424533
6.31597e-05
1.19497e-05
0.00035401
0.000534976
9.98206e-06
0.00487042
0.00743256
0.000110615
0.00043486
0.000160981
0.000855794
0.00998976
0.0235709
0.00265124
0.00377432
0.00284813
0.000678665
0.000852502
0.00404539
0.00857442
3.79316e-06
0.000445671
0.00284529
0.00379542
0.00401134
0.00794828
3.64075e-05
0.000654278
0.00298695
0.0016946
0.000712775
0.000502053
0.00872347
4.57805e-05
0.00423769
0.0165164
0.0019435
0.00528242
0.00148629
3.23803e-06
0.00460448
0.00049231
8.02261e-05
0.000603235
1.90994e-05
1.081e-06
2.36915e-06
-5.316e-09
0.000121972
1.13672e-05
3.54542e-05
0.000180083
0.000149462
1.72423e-05
0.000583283
0.000145833
1.66922e-05
1.0276e-07
0.000659241
6.31641e-07
0.000161102
0.000962943
3.36404e-06
4.18526e-08
8.119e-05
3.82394e-05
0.000469412
0.000890947
2.72782e-05
0.00254088
1.56055e-05
-4.73247e-06
0.000128448
3.08573e-05
-6.59875e-06
-0.000153404
0.00014478
0.00452016
6.51104e-06
7.63136e-05
-1.76794e-05
0.000219397
0.00294929
0.0018023
8.14768e-05
0.00211793
-1.70193e-07
1.05251e-05
1.56672e-05
2.52357e-07
7.18027e-05
0.000255442
0.00265616
0.000734224
0.00564917
3.47523e-06
0.000615287
-1.61792e-06
0.000250107
0.00152352
1.70073e-07
8.11139e-07
1.28827e-05
5.49741e-07
2.60946e-06
3.94356e-05
0.00377136
0.00158273
3.7991e-07
0.00107725
0.000184163
0.00168029
1.03682e-05
3.6684e-07
-0.000214383
1.00253e-07
0.00062227
2.74898e-05
0.000847142
7.13684e-05
0.000317601
7.31528e-05
0.000124373
2.94906e-05
0.000333419
0.000242458
0.000901348
0.00259403
-7.40121e-05
7.96012e-06
-7.86243e-06
1.53285e-05
0.00119344
3.99407e-05
3.78251e-05
0.00256456
-4.23245e-05
9.97218e-05
0.0015504
0.000308714
7.29995e-06
7.04758e-05
0.00037862
0.000469825
0.000253419
0.00112593
5.88685e-06
7.66546e-05
0.00131347
1.05801e-05
0.0024062
0.000350244
0.00529929
8.61384e-05
5.44195e-05
0.000118318
9.86887e-08
0.000449201
9.219e-05
0.000526034
1.05247e-05
0.000416245
0.000126008
0.00019014
1.29436e-05
5.53781e-08
0.000198803
0.00014852
0.00032147
0.000211953
1.21917e-05
0.000360281
0.000194149
-0.00037728
1.7236e-05
0.000200175
0.000110315
0.000199693
0.000543949
2.87085e-06
3.91946e-07
8.9043e-05
4.19584e-05
3.31847e-06
4.66842e-05
3.65431e-05
1.13625e-07
5.48398e-05
1.03268e-05
1.732e-06
7.26254e-05
1.44719e-07
0.000174778
5.07447e-05
0.00120693
-1.10267e-05
0.00109389
0.000298303
0.000662125
1.07045e-05
7.71742e-07
3.4706e-05
3.46114e-06
7.41459e-06
0.000560903
1.95787e-05
6.17725e-05
-0.000558569
0.000691585
7.6298e-05
0.00239022
-6.33616e-05
0.000400256
9.71138e-06
3.38184e-05
-7.28364e-06
9.98853e-06
-5.37759e-06
-5.5842e-05
7.05556e-05
1.80925e-05
1.85692e-05
-1.33903e-05
1.04557e-05
3.02958e-05
4.05483e-05
2.82531e-05
2.9095e-05
8.8376e-05
-0.000200057
-0.00023976
-8.9781e-06
0.000176588
0.000128347
7.43456e-05
5.11783e-05
0.000227384
1.17893e-05
-3.11244e-05
4.65804e-05
1.20081e-05
-1.75157e-05
0.000402061
0.00022184
2.96118e-06
6.16787e-05
0.00030439
0.000441628
-0.000200957
0.00125873
0.000179641
9.23121e-05
0.000569463
0.000380252
1.76808e-05
-3.68038e-05
0.000498742
0.000408054
0.0016729
0.000201947
0.000383672
0.000688645
6.13937e-05
4.76792e-05
8.88296e-08
0.00533575
0.00113217
2.31195e-06
0.000798805
0.00815135
0.00740208
1.30622e-05
0.00124728
0.00199072
0.0016081
0.00549839
0.00264893
1.63097e-05
1.0318e-05
0.000123215
0.00034566
0.00254473
1.75004e-06
0.00228893
0.00019588
0.0101831
-2.15887e-05
0.000329083
0.00700934
0.00188819
5.36612e-05
0.00861147
0.00862287
0.000908858
3.62103e-05
-7.83442e-05
0.000859975
8.55309e-05
0.00303709
0.000407189
0.00624304
-1.65976e-05
0.000132246
0.000122186
7.56102e-05
0.000358743
0.000386618
0.00524187
0.000116958
-1.21411e-05
-7.39637e-05
0.000141618
1.94837e-05
9.74067e-06
0.000278623
0.000230507
0.000531828
0.000290407
0.00140734
0.000141077
0.00119923
0.000555947
0.00166917
0.000229726
0.000123309
0.000102811
0.000199215
0.000287945
0.00132665
0.00138291
0.00261753
0.00154961
0.0004738
0.00176827
0.000747376
0.00302975
0.00332148
0.000685974
0.000387586
0.00376731
0.0042678
-0.00562323
0.00395377
0.00106301
0.000230656
2.7034e-05
0.00375315
0.00492951
0.000909394
0.00215997
0.00136771
0.00239997
2.92735e-05
0.00059458
0.000154984
0.000372674
0.00750044
0.000135555
0.00219254
0.0007084
0.000193142
0.000263849
0.00357878
0.000506934
0.000968354
0.000265975
0.0240929
0.00105055
7.90733e-05
0.00482249
0.00129003
-8.24147e-06
0.00483024
0.000488254
0.00100675
0.0120063
0.00543579
0.000557666
0.00254077
-0.00287175
0.000259719
0.00108785
0.000835695
0.00673677
0.0281097
0.00315059
)


// ************************************************************************* //
