/*--------------------------------*- C++ -*----------------------------------*\
  =========                 |
  \\      /  F ield         | OpenFOAM: The Open Source CFD Toolbox
   \\    /   O peration     | Website:  https://openfoam.org
    \\  /    A nd           | Version:  6
     \\/     M anipulation  |
\*---------------------------------------------------------------------------*/
FoamFile
{
    version     2.0;
    format      ascii;
    class       scalarField;
    location    "0.1/lagrangian/sprayCloud";
    object      yDot;
}
// * * * * * * * * * * * * * * * * * * * * * * * * * * * * * * * * * * * * * //


572
(
-0.221143
-3.23706
-6.12965
-0.792992
-4.06218
-31.9175
-231.117
0.7243
-36.4562
43.7419
-3.55175
40.3582
-29.244
-4.61606
-0.0452559
-0.281755
-0.00164611
380.546
-11.1218
-3.34626
-0.0622944
22.1226
16.4386
5.1004
2.65406
-81.2213
1.52655
105.83
439.276
-4.60249
-258.956
-13.4482
0.881118
-31.1561
15.3776
62.3856
7.84333
6.42396
-0.0814746
-0.328546
-5.24482
-6.2184
7.01666
-11.2549
88.3242
2.29255
-0.016551
-0.222249
24.6512
-0.533413
18.1247
-45.5965
3.00128
-9.26914
28.6747
-2.98674
-8.32266
-5.04852
-4.53191
-1.33744
-99.8961
-0.237287
8.13257
-5.48767
-45.1505
15.6387
-32.0513
52.2299
-16.8174
-7.93136
1.0915
27.0117
-3.73318
-0.0369902
-8.28613
49.7666
9.40925
-46.741
6.95371
-5.65255
0.269717
-34.9424
-0.65876
-85.1347
-184.301
78.6854
0.255615
6.05934
375.427
-6.68623
275.86
-182.561
6.10452
-0.00440041
114.037
-66.8942
-74.2529
-333.851
-2.72361
3.71103
41.8271
30.9948
37.0395
0.500243
-5.99752
70.9957
17.7582
-1.87553
0.0664936
-35.981
3.66975
14.3627
-0.772901
23.3837
17.1548
47.0544
-141.158
-0.0311755
33.4967
14.4923
22.746
-0.0214993
-314.668
1.66577
1.53379
-0.0717305
-0.00200814
-0.286969
-0.911163
-0.176034
1.3293
-192.625
18.6955
-14.0149
-0.109356
0.43067
-3.3231
76.032
-0.172279
-0.0586373
-3.392
37.858
4.71693
-2.02604
-20.8963
-367.765
-18.6435
7.65578
-4.00408
11.6432
-51.9919
7.48036
-0.428819
-19.1017
-0.261681
52.5737
0.0347266
-2.69524
-0.8968
-0.546016
-4.10776
-6.8241
0.489371
-0.261123
-50.042
-226.236
-0.08463
-0.00677171
-0.198701
-13.8853
451.691
-2.69561
-82.0865
2.02875
1.18786
-0.11502
-1.94967
-0.140547
-1262.44
0.486997
-0.0468748
-1.60955
-0.694245
-5.97481
-20.8573
-33.6013
-0.760318
0.198878
-0.126078
-47.6867
-2.76891
391.17
-210.205
-0.0611151
3.49802
8.93258
19.1767
-9.20603
20.0138
152.392
30.7438
43.8897
-29.201
-13.8607
-38.4532
-398.554
0.22197
-21.2603
11.3473
-75.3489
-105.447
-216.62
2.416
11.3528
-52.2131
-27.4903
10.109
-10.7633
36.5644
-8.97745
-39.284
374.411
-6.83318
276.953
-63.9296
-3.64655
68.9945
-8.43893
-2.97798
-9.4805
2.03054
0.088797
-0.543376
0.0132992
-19.5251
-0.238738
9.78186
52.0714
17.0047
7.01455
1.0139
-19.6293
3.101
0.0739155
325.699
3.11264
27.4219
-9.46429
-7.68345
-0.0298125
-4.98915
9.71064
46.6516
-78.0095
2.16164
22.0018
-0.382157
24.6791
12.2048
2.92564
11.9014
98.0056
47.7351
-254.348
1.82405
11.4496
-40.5315
1.30745
-264.573
26.9851
-101.535
-14.1874
-0.183336
0.182124
11.9746
-1.12417
3.3378
72.5499
-423.312
-1.63041
-59.2951
-1.81224
-85.3506
-0.278739
93.2102
54.9785
-1.25544
0.913086
-0.903569
-0.0318604
-0.0141777
-5.47128
137.849
223.391
0.127213
97.6299
10.2199
146.311
7.73012
-0.0965942
120.302
-0.100268
99.8332
-13.4134
64.2237
24.3613
0.162435
10.0754
28.5366
8.53998
-4.70483
39.9677
48.9456
41.6688
-73.8491
-2.59304
2.54719
-3.26095
-87.0815
-19.3091
-1.42458
-142.879
19.4593
-8.97479
-64.0237
51.4766
-8.03462
32.1338
-26.7789
18.432
19.1093
35.7898
-12.2015
105.562
21.0721
2.63464
73.666
25.5664
-306.527
0.155492
-38.9214
-13.1135
0.0807744
-24.6884
8.01701
33.7395
17.3046
-35.1476
-21.7602
32.6272
7.60773
0.07974
-45.0498
50.4332
-29.3188
9.01126
-1.38179
14.4095
4.71016
-201.864
-35.2684
4.99662
67.6463
-29.2704
107.41
22.198
6.55978
54.7706
17.9393
-18.2805
125.65
11.1561
0.209011
16.0183
-1.81496
-0.567692
-27.2219
4.35733
82.3079
-4.09441
-103.681
3.19505
23.4337
-59.0791
108.919
-0.567698
-0.14025
1.34853
-4.94567
2.39872
47.1027
8.10451
6.15717
-40.9563
-44.2098
39.6783
105.547
-24.0081
34.4936
2.46525
-13.081
6.07758
-5.77549
-51.7128
28.3625
55.2855
-25.2932
66.0868
-5.33764
-12.4025
0.67042
-8.56241
-63.2068
-2.15166
17.8199
-112.272
-15.3522
128.989
16.8322
33.1162
54.1013
18.5609
23.1684
1.38161
-177.367
-7.37548
-3.67857
9.75639
-58.1363
-13.8946
-15.9007
-6.56178
75.4558
-4.02176
-81.4916
-69.4231
87.9515
9.90128
-36.4239
-73.9766
2.98163
-115.903
7.03352
61.9613
18.4837
-219.5
-16.4411
-91.5519
65.8434
-9.80115
-0.141392
-133.915
61.8855
-8.64419
-169.017
269.219
156.421
15.7205
12.4348
-321.304
-507.077
-993.683
-337.342
52.1185
22.5507
72.1217
38.616
-521.563
8.24161
-111.261
-883.262
-1482.13
589.678
24.7459
8.42353
-1082.12
15.9007
238.77
464.032
-326.511
19.6255
-3.03756
-168.144
8.65035
-223.33
23.3171
810.481
-55.757
-92.4038
-0.628386
-47.9317
3.26559
-64.811
182.369
-112.068
43.0499
-19.0275
-69.6976
-2.66411
2.69915
7.95547
-14.1883
-238.979
-61.3249
25.4705
-10.7406
-113.075
-41.5888
22.7289
-12.1705
76.1207
427.33
76.5219
-12.4936
8.68706
444.642
-204.778
-28.3905
29.161
-20.7566
-258.68
239.591
189.614
65.0617
-69.911
98.5249
12.8163
-1119.66
543.247
-70.9969
-7.99993
-22.3098
65.2955
40.8446
-83.3528
281.142
18.3518
-232.963
-119.921
85.3344
-39.7588
-92.9071
325.412
681.346
380.204
-1287.31
-418.462
106.788
-1604.69
-30.4049
536.937
43.9571
1221.17
-63.838
-55.1229
-1772.08
-467.594
85.5348
-331.484
-57.9526
-27.2857
-1515.17
-617.809
136.211
-21.6832
-518.179
-42.7714
-87.2376
-44.8775
838.597
-7728.05
951.992
)


// ************************************************************************* //
