/*--------------------------------*- C++ -*----------------------------------*\
  =========                 |
  \\      /  F ield         | OpenFOAM: The Open Source CFD Toolbox
   \\    /   O peration     | Website:  https://openfoam.org
    \\  /    A nd           | Version:  6
     \\/     M anipulation  |
\*---------------------------------------------------------------------------*/
FoamFile
{
    version     2.0;
    format      ascii;
    class       volScalarField;
    location    "0.005";
    object      alphat;
}
// * * * * * * * * * * * * * * * * * * * * * * * * * * * * * * * * * * * * * //

dimensions      [1 -1 -1 0 0 0 0];

internalField   nonuniform List<scalar> 
8000
(
0.000688959
0.000692066
0.000696324
0.000698998
0.000699012
0.00070051
0.000705167
0.000710901
0.000718727
0.000735945
0.000734746
0.000744502
0.000748861
0.000792517
0.000806453
0.000798045
0.000810403
0.00087574
0.000918595
0.000843472
0.000740668
0.000533823
0.000319789
0.000205814
0.000114035
6.89113e-05
6.21005e-05
6.84139e-05
8.11505e-05
9.922e-05
0.000119969
0.000145613
0.000180421
0.000233417
0.000306741
0.000390885
0.000486541
0.000595013
0.000708253
0.000810649
0.000894404
0.000941987
0.000874492
0.000711709
0.000491676
0.000228874
0.000123618
7.92907e-05
4.94001e-05
2.47083e-05
1.92913e-05
8.11108e-05
0.000420018
0.000715779
0.000734797
0.000724531
0.000716062
0.000709327
0.00070418
0.00070015
0.00069709
0.000694746
0.000692876
0.000691264
0.000689765
0.000688318
0.000686937
0.000685743
0.000684833
0.000684331
0.000684309
0.000684744
0.000685529
0.00068652
0.000687543
0.000688482
0.000689288
0.000689916
0.000690395
0.000690752
0.000691023
0.000691279
0.000691502
0.000691743
0.000691991
0.000692275
0.000692609
0.000692987
0.000693371
0.000693744
0.000694111
0.000694442
0.000694721
0.000694905
0.000694972
0.000694901
0.000694724
0.000694508
0.000694366
0.000693782
0.000687919
0.000692552
0.000697361
0.000700581
0.000701159
0.000703296
0.0007085
0.000715304
0.000725952
0.000748145
0.000750018
0.000763785
0.000768601
0.000817829
0.000827165
0.000812678
0.000823112
0.000882778
0.000936819
0.000856576
0.000759894
0.00048522
0.000129402
0.000148869
0.000112134
7.06471e-05
6.21608e-05
6.78499e-05
8.09172e-05
9.91427e-05
0.000120298
0.000146943
0.000183714
0.000240312
0.000319542
0.000409491
0.00050721
0.000620587
0.00073484
0.000845838
0.00092879
0.000969569
0.000898439
0.000730585
0.000504862
0.000234739
0.000123425
8.35997e-05
5.2437e-05
2.4918e-05
1.71467e-05
6.81001e-05
0.000402174
0.000712736
0.000732596
0.000722798
0.000714778
0.000708404
0.000703541
0.000699744
0.000696869
0.000694667
0.000692898
0.000691352
0.000689889
0.000688449
0.00068705
0.00068581
0.000684828
0.000684236
0.000684114
0.000684451
0.000685149
0.000686066
0.000687032
0.000687931
0.000688715
0.000689338
0.000689824
0.000690197
0.000690492
0.000690773
0.000691022
0.000691287
0.00069156
0.000691865
0.000692218
0.000692615
0.000693019
0.000693417
0.000693808
0.000694163
0.000694465
0.000694668
0.00069475
0.000694692
0.000694525
0.000694319
0.000694189
0.00069363
0.000688762
0.000696622
0.000699316
0.000702505
0.000706237
0.000710351
0.000717526
0.0007268
0.000724001
0.000779781
0.000784363
0.000804858
0.000852537
0.000872306
0.000773136
0.000781896
0.00085249
0.000942743
0.00100728
0.00090481
0.000841927
0.000639004
0.000275685
0.00024596
0.000151116
8.01511e-05
6.88466e-05
6.7874e-05
8.11534e-05
0.000100198
0.00012161
0.000150541
0.000191859
0.000256449
0.000347977
0.000450902
0.000553597
0.000671367
0.000794146
0.000908935
0.000989516
0.00103326
0.000951414
0.000771475
0.00053224
0.000247448
0.000131591
8.12824e-05
6.66012e-05
2.21934e-05
1.8339e-05
9.10266e-05
0.000463987
0.000720182
0.000728684
0.000719262
0.000712136
0.000706494
0.000702199
0.000698869
0.000696368
0.000694457
0.000692899
0.000691488
0.000690094
0.00068866
0.000687208
0.000685854
0.000684706
0.000683913
0.000683571
0.000683696
0.000684205
0.000684965
0.000685809
0.000686624
0.000687361
0.000687977
0.000688481
0.000688899
0.000689259
0.000689605
0.00068993
0.000690269
0.000690615
0.000690986
0.000691394
0.000691837
0.000692284
0.000692723
0.000693147
0.000693528
0.000693844
0.000694053
0.000694131
0.000694066
0.000693889
0.000693678
0.000693558
0.000693104
0.00069052
0.00069743
0.000704259
0.00071177
0.000716516
0.000725044
0.000737065
0.000749153
0.000774697
0.000746664
0.000816576
0.000827002
0.000982293
0.000789785
0.000867935
0.000859222
0.000892236
0.00106866
0.000902392
0.000989851
0.000989104
0.00065565
0.000472797
0.00032395
0.000189777
0.000104262
7.55802e-05
7.21605e-05
8.09274e-05
0.000113521
0.000123129
0.000157888
0.000206728
0.000283233
0.000391454
0.000515315
0.000622163
0.000748968
0.000874169
0.00100232
0.00107512
0.00111426
0.00102136
0.000825192
0.000569554
0.000265249
0.000126702
7.06239e-05
3.49426e-05
1.81561e-05
3.08815e-05
0.000179567
0.000585391
0.000732768
0.000726643
0.000717209
0.000710673
0.000705463
0.000701483
0.000698412
0.000696121
0.000694373
0.000692925
0.00069157
0.000690183
0.000688707
0.000687172
0.000685699
0.000684403
0.000683441
0.000682924
0.000682878
0.000683227
0.000683842
0.000684556
0.000685257
0.000685901
0.000686444
0.000686895
0.000687277
0.000687621
0.000687958
0.000688294
0.000688653
0.000689033
0.000689448
0.000689901
0.000690389
0.000690892
0.00069139
0.000691873
0.000692308
0.000692669
0.000692916
0.000693023
0.000692981
0.000692822
0.000692631
0.000692549
0.000692257
0.000694233
0.000704438
0.000709539
0.000728294
0.000725484
0.000753373
0.000771943
0.000774494
0.000803346
0.000744491
0.00049279
0.000556552
0.000658708
0.000885609
0.000877971
0.000808645
0.000956969
0.000920118
0.00118307
0.00113784
0.000906111
0.000710466
0.000578287
0.000334489
0.000217353
0.000124467
8.57284e-05
7.08759e-05
8.05093e-05
0.000101144
0.000129052
0.000172517
0.00023229
0.00032183
0.000448485
0.000661062
0.000708201
0.000845399
0.000986548
0.00111089
0.00117903
0.001213
0.00111341
0.000889719
0.000614403
0.000286211
0.000133388
6.17766e-05
2.76377e-05
2.13116e-05
7.01267e-05
0.000333428
0.000681023
0.000741034
0.000725936
0.000716325
0.000709996
0.000704923
0.000701046
0.000698069
0.000695853
0.000694153
0.000692725
0.000691367
0.000689958
0.000688444
0.000686861
0.000685327
0.000683957
0.000682911
0.000682305
0.000682168
0.000682429
0.000682956
0.000683585
0.000684201
0.00068476
0.000685222
0.000685595
0.000685906
0.000686186
0.000686464
0.000686756
0.000687084
0.000687448
0.000687859
0.000688315
0.000688813
0.000689337
0.000689867
0.000690382
0.00069085
0.000691238
0.000691506
0.000691626
0.000691593
0.00069144
0.000691258
0.00069121
0.000691079
0.000702638
0.000722125
0.000740481
0.000757451
0.000777754
0.000788995
0.000815179
0.000826741
0.0008431
0.000854009
0.000841399
0.000859297
0.000877534
0.000898894
0.000879685
0.000899209
0.00104208
0.000963943
0.00137275
0.00103467
0.00118731
0.000677084
0.000567444
0.000329978
0.000181886
0.000130635
9.88867e-05
8.32722e-05
0.000100355
0.000108938
0.000139915
0.000189211
0.000294944
0.000371393
0.000517441
0.000673946
0.000807893
0.000961618
0.00110348
0.00123446
0.00129763
0.00132505
0.0013195
0.000955154
0.000664511
0.000308835
0.000140064
5.97374e-05
2.81861e-05
3.6751e-05
0.000157922
0.000493703
0.000732108
0.000744874
0.000725455
0.00071567
0.000709368
0.000704307
0.000700456
0.000697512
0.000695316
0.000693621
0.000692183
0.000690808
0.000689385
0.000687859
0.000686268
0.00068472
0.000683329
0.000682254
0.000681615
0.000681443
0.00068167
0.000682165
0.00068276
0.00068334
0.000683857
0.000684274
0.0006846
0.000684864
0.000685098
0.000685333
0.000685588
0.000685884
0.000686224
0.000686613
0.00068705
0.00068753
0.00068804
0.000688558
0.000689061
0.000689513
0.000689878
0.000690118
0.000690204
0.000690135
0.000689948
0.000689742
0.0006897
0.000689693
0.00071914
0.000754651
0.000783453
0.000812061
0.000830076
0.000845925
0.000844584
0.000863485
0.000869169
0.000869522
0.000802346
0.000809665
0.000808894
0.000886995
0.000879195
0.000928788
0.00101011
0.00138401
0.00104322
0.00121285
0.000797882
0.000696393
0.000452409
0.000289764
0.000110431
0.000114207
0.0001058
9.39677e-05
9.84582e-05
0.000118121
0.000153553
0.000215451
0.000309254
0.000435715
0.000603449
0.000773476
0.000922429
0.00109048
0.00123162
0.00149209
0.00142886
0.00144176
0.00129639
0.00102027
0.000724496
0.000330803
0.000150582
6.51757e-05
3.44448e-05
6.61149e-05
0.000273626
0.000587631
0.00075379
0.000746179
0.000724801
0.000714877
0.000708548
0.000703469
0.000699631
0.00069671
0.000694524
0.000692826
0.000691377
0.000689995
0.000688573
0.000687057
0.000685482
0.000683946
0.000682559
0.00068148
0.000680832
0.000680652
0.000680874
0.000681366
0.000681959
0.000682536
0.000683046
0.000683452
0.000683765
0.000684015
0.000684235
0.000684456
0.000684698
0.000684982
0.000685309
0.000685683
0.0006861
0.000686556
0.000687038
0.000687525
0.00068799
0.000688399
0.000688713
0.000688894
0.000688917
0.000688783
0.000688536
0.000688283
0.000688224
0.000688292
0.000748327
0.000798427
0.000829882
0.000854176
0.000865228
0.000860435
0.000879891
0.000890822
0.000809272
0.000868864
0.000858539
0.000880257
0.000856058
0.000862735
0.000757657
0.000755504
0.000754019
0.000823463
0.00102683
0.000754686
0.000809954
0.000621162
0.000380954
0.000280393
0.000159617
0.000132837
0.00011923
0.000104624
0.000106024
0.000129068
0.00017284
0.000255526
0.000366365
0.000512892
0.000704867
0.000893291
0.00105325
0.0012262
0.00136359
0.00149814
0.0015698
0.00156141
0.00138748
0.00108719
0.000770117
0.000349525
0.000164896
0.000111524
4.33497e-05
0.000101043
0.000395281
0.000634908
0.000763691
0.000746595
0.00072407
0.000713984
0.00070762
0.000702525
0.000698703
0.000695807
0.000693632
0.000691935
0.000690482
0.000689102
0.000687693
0.000686198
0.000684648
0.000683131
0.000681756
0.000680681
0.000680031
0.000679849
0.000680074
0.000680571
0.000681173
0.000681759
0.000682275
0.000682687
0.000683004
0.000683257
0.00068348
0.000683705
0.000683951
0.000684235
0.00068456
0.000684926
0.00068533
0.000685767
0.000686222
0.000686677
0.000687102
0.000687463
0.00068772
0.000687838
0.000687792
0.000687588
0.000687275
0.000686966
0.000686877
0.000686979
0.000781605
0.000830151
0.000852516
0.000862719
0.000857064
0.000855507
0.000852457
0.000867907
0.000695905
0.000842848
0.000748983
0.000762591
0.000837533
0.000792471
0.000765774
0.000682715
0.000665186
0.000749282
0.000416431
0.000657549
0.000571764
0.000360427
0.000363638
0.000234853
0.000156354
0.000146494
0.00012511
0.000108524
0.000107768
0.000142154
0.000209195
0.000325688
0.000439651
0.000605834
0.000819941
0.00102588
0.00119392
0.00137521
0.00150073
0.00163374
0.001859
0.00183217
0.00147968
0.00114979
0.00091948
0.000390602
0.000169903
7.90891e-05
4.79141e-05
0.000117989
0.000423374
0.00067154
0.000770525
0.000747127
0.000723447
0.000713159
0.000706737
0.00070163
0.000697827
0.000694956
0.000692795
0.000691103
0.000689653
0.000688281
0.00068689
0.000685418
0.000683893
0.000682393
0.000681028
0.000679953
0.000679299
0.000679114
0.000679339
0.00067984
0.000680447
0.00068104
0.000681563
0.000681981
0.000682304
0.000682565
0.000682795
0.000683028
0.000683281
0.000683569
0.000683895
0.000684257
0.000684652
0.000685072
0.000685507
0.000685933
0.000686323
0.000686641
0.000686847
0.000686907
0.000686797
0.000686528
0.000686153
0.00068579
0.000685666
0.000685772
0.000778296
0.000811199
0.000809235
0.000796738
0.000798185
0.000769819
0.00080931
0.000792852
0.000805698
0.000692277
0.000766812
0.000760477
0.000687219
0.000594669
0.000486515
0.000613652
0.000695108
0.000664064
0.000588438
0.000572929
0.000423035
0.000320361
0.000261858
0.000207993
0.000168339
0.000142016
0.000121982
0.000110209
0.000118596
0.000185441
0.000234523
0.00035636
0.000584514
0.000707112
0.000940232
0.00128778
0.00133343
0.00154102
0.00164111
0.00176429
0.00198985
0.00179242
0.00157658
0.00120972
0.000829622
0.000376246
0.000261887
9.04273e-05
4.87942e-05
0.000122117
0.000589518
0.000669706
0.000774944
0.00074849
0.000723308
0.000712561
0.000706002
0.000700878
0.000697093
0.000694245
0.000692099
0.000690416
0.000688973
0.000687613
0.00068624
0.000684788
0.000683282
0.000681794
0.000680432
0.000679355
0.000678693
0.0006785
0.00067872
0.000679217
0.000679823
0.000680416
0.00068094
0.000681359
0.000681684
0.000681948
0.000682183
0.00068242
0.000682677
0.000682967
0.000683292
0.000683649
0.000684035
0.000684443
0.000684858
0.00068526
0.00068562
0.0006859
0.000686063
0.000686072
0.000685907
0.000685581
0.00068515
0.000684738
0.000684576
0.000684672
0.000683829
0.000645869
0.000637014
0.000634136
0.000646358
0.000614838
0.000644437
0.000597254
0.000648043
0.000638436
0.000644539
0.000530449
0.000581069
0.000489395
0.00052399
0.000550926
0.000550669
0.000394618
0.000395224
0.000299143
0.000300698
0.000198637
0.000198317
0.000137355
0.000129442
0.000126728
0.00011399
0.000112123
0.000132622
0.000191631
0.000280498
0.000420721
0.000612467
0.000824588
0.00106032
0.00142046
0.0014627
0.00186457
0.00177883
0.00189223
0.00193605
0.00190776
0.00168336
0.0012623
0.000849004
0.0003731
0.000256537
0.000122914
4.66037e-05
0.000105208
0.000401532
0.000707505
0.00078158
0.000751426
0.000723863
0.000712245
0.000705451
0.00070029
0.00069652
0.000693694
0.000691563
0.000689891
0.000688459
0.000687112
0.000685754
0.000684317
0.000682823
0.000681341
0.000679979
0.000678895
0.000678223
0.000678018
0.000678227
0.000678715
0.000679314
0.000679901
0.000680419
0.000680833
0.000681155
0.000681417
0.000681652
0.000681888
0.000682144
0.000682432
0.000682753
0.000683104
0.000683481
0.000683875
0.000684274
0.000684656
0.000684989
0.000685237
0.000685362
0.000685328
0.000685117
0.000684742
0.000684263
0.000683808
0.000683611
0.00068369
0.000446279
0.000407847
0.000422338
0.000416583
0.000487299
0.000442679
0.000454061
0.000475089
0.000366528
0.000377624
0.000369007
0.000356554
0.00033746
0.000310395
0.000351416
0.000372357
0.000394332
0.000320688
0.000306935
0.000316605
0.000237242
0.000191787
0.000159723
0.000130399
0.000122649
0.000116983
0.000111116
0.000137064
0.000149268
0.000241461
0.000335963
0.000503291
0.000715176
0.00105536
0.00117521
0.00141312
0.00173912
0.00182721
0.00191429
0.00202338
0.00205183
0.0019945
0.00195479
0.0013128
0.000862471
0.000395727
0.000417913
0.000232321
4.72078e-05
0.000112789
0.000508744
0.000714979
0.000786803
0.000755708
0.000725058
0.000712363
0.000705087
0.000699846
0.000696086
0.00069328
0.000691164
0.000689506
0.000688085
0.00068675
0.000685405
0.000683979
0.000682493
0.000681012
0.000679647
0.000678554
0.00067787
0.000677652
0.000677848
0.000678324
0.000678911
0.000679488
0.000679996
0.000680402
0.000680717
0.000680973
0.000681203
0.000681435
0.000681687
0.00068197
0.000682284
0.000682627
0.000682995
0.000683378
0.000683762
0.000684126
0.000684437
0.000684659
0.000684752
0.000684683
0.000684434
0.000684019
0.000683501
0.000683009
0.000682783
0.000682844
0.00028258
0.000319583
0.000320659
0.000294867
0.000286333
0.000272777
0.000280935
0.000222249
0.000105383
0.000125604
0.000181768
0.000192548
0.00018365
0.000212751
0.000208976
0.000227327
0.000229691
0.000268803
0.000368261
0.000234766
0.000181324
0.000157031
0.00013656
0.000116931
0.000115533
0.000112903
0.000111128
0.000149956
0.000170654
0.000268147
0.000404086
0.000594705
0.000827156
0.00107562
0.00130847
0.0015336
0.00187413
0.00213891
0.00204434
0.00215753
0.00217439
0.00228491
0.00200417
0.00135371
0.000869044
0.000408583
0.000262934
0.000173257
4.94471e-05
0.000117055
0.000459097
0.000743778
0.000790573
0.000758976
0.000726396
0.000712618
0.000704893
0.00069951
0.000695756
0.000692968
0.000690868
0.000689222
0.000687814
0.00068649
0.000685155
0.000683736
0.000682254
0.000680773
0.000679403
0.000678301
0.000677606
0.000677375
0.000677558
0.000678021
0.000678596
0.00067916
0.000679658
0.000680053
0.000680359
0.000680608
0.000680832
0.000681058
0.000681303
0.000681579
0.000681886
0.000682222
0.000682581
0.000682954
0.000683326
0.000683675
0.000683968
0.000684169
0.000684237
0.000684141
0.000683862
0.000683416
0.000682867
0.000682347
0.000682097
0.000682144
0.000240163
0.000143028
0.000144586
0.000152338
0.000127985
8.0198e-05
0.000122112
0.000129449
9.74272e-05
0.000106899
0.00010648
0.000110866
0.0001132
0.000116914
0.000125972
0.000145289
0.000166411
0.000151404
0.000251642
0.000177639
0.000136309
0.000131951
0.000124423
0.000114938
0.000114929
0.000111304
0.000129718
0.000142728
0.0002014
0.000321808
0.000487456
0.000699957
0.00104937
0.00121789
0.00145068
0.00164363
0.00183666
0.00227547
0.00217716
0.0022918
0.00230916
0.00218364
0.00187398
0.00138884
0.000867577
0.000396188
0.000224343
8.70991e-05
5.45565e-05
0.000137619
0.000489436
0.000761615
0.000792472
0.00075807
0.000727145
0.000711681
0.000704668
0.000699244
0.000695496
0.000692726
0.00069064
0.000689008
0.000687611
0.000686297
0.00068497
0.000683557
0.000682077
0.000680595
0.00067922
0.000678111
0.000677406
0.000677164
0.000677335
0.000677786
0.000678349
0.000678902
0.000679388
0.000679774
0.000680072
0.000680313
0.000680529
0.000680749
0.000680988
0.000681257
0.000681557
0.000681886
0.000682237
0.000682602
0.000682965
0.000683303
0.000683582
0.000683766
0.000683815
0.000683698
0.000683398
0.00068293
0.000682358
0.000681817
0.000681549
0.000681583
0.000160801
3.51727e-05
4.20996e-05
5.11238e-05
6.22763e-05
5.42575e-05
7.60093e-05
6.71535e-05
6.11142e-05
7.158e-05
6.80036e-05
7.0561e-05
7.28797e-05
7.45204e-05
7.22741e-05
9.51892e-05
0.000120483
0.000156047
0.000166168
0.000144368
0.000126018
0.000123423
0.000117079
0.000112916
0.00010986
0.000126081
0.00012707
0.000162565
0.000241004
0.000436108
0.00064938
0.000892789
0.0011779
0.00151895
0.00178022
0.00194833
0.00194612
0.00215188
0.00254092
0.00236899
0.00267062
0.00225897
0.00212864
0.00163614
0.000855191
0.000441597
0.00021574
7.99313e-05
5.98995e-05
0.000158353
0.000517249
0.00077721
0.000795555
0.00075662
0.000725792
0.000713428
0.000704476
0.000699016
0.000695286
0.000692534
0.000690462
0.000688842
0.000687456
0.00068615
0.000684829
0.000683421
0.000681941
0.000680458
0.00067908
0.000677964
0.000677251
0.000677
0.000677162
0.000677603
0.000678155
0.000678699
0.000679176
0.000679553
0.000679842
0.000680077
0.000680287
0.000680501
0.000680734
0.000680997
0.000681292
0.000681614
0.00068196
0.000682318
0.000682674
0.000683003
0.000683272
0.000683443
0.000683479
0.000683347
0.00068303
0.000682547
0.00068196
0.000681404
0.000681122
0.000681148
4.87009e-05
3.66138e-05
4.12596e-05
4.52628e-05
4.60305e-05
4.89287e-05
5.62001e-05
5.43328e-05
5.42819e-05
5.69767e-05
5.67878e-05
5.76303e-05
5.48295e-05
5.61861e-05
6.04857e-05
7.12688e-05
8.93087e-05
0.000118486
0.000129104
0.000125794
0.000113451
0.000110447
0.000109897
0.000109964
0.000121658
0.000120306
0.000142299
0.000193476
0.000296823
0.000463861
0.000778647
0.000917818
0.00119729
0.00150278
0.00172018
0.00210005
0.00237438
0.00227485
0.00270941
0.0027418
0.00247185
0.002566
0.00217739
0.00142696
0.000828721
0.000370737
0.000195548
6.85062e-05
7.14681e-05
0.000197231
0.000561104
0.000796151
0.000801824
0.000758253
0.000718511
0.000712353
0.000704173
0.000698787
0.000695086
0.000692354
0.000690297
0.000688689
0.000687314
0.000686017
0.000684703
0.000683299
0.000681819
0.000680335
0.000678952
0.00067783
0.00067711
0.00067685
0.000677003
0.000677434
0.000677976
0.00067851
0.000678978
0.000679347
0.000679628
0.000679856
0.00068006
0.000680268
0.000680495
0.000680752
0.000681041
0.000681358
0.000681698
0.000682051
0.0006824
0.000682721
0.000682981
0.000683142
0.000683165
0.00068302
0.000682691
0.000682195
0.000681595
0.000681027
0.000680735
0.000680754
1.93834e-05
3.69866e-05
3.99928e-05
4.27036e-05
4.4724e-05
4.73064e-05
5.00021e-05
5.06244e-05
5.33046e-05
6.03515e-05
5.85828e-05
6.43281e-05
6.23994e-05
5.40193e-05
5.4402e-05
5.85558e-05
6.98685e-05
9.15241e-05
0.000104247
0.000108547
0.000102581
0.000100827
0.000104588
0.000116219
0.000119378
0.000130573
0.000178549
0.000257953
0.000408998
0.000616725
0.000809997
0.00106625
0.00135672
0.00163718
0.00209201
0.002251
0.00260299
0.00239155
0.0025681
0.00287112
0.00283347
0.00232757
0.0021908
0.00143742
0.000859771
0.000474673
0.000253312
6.14483e-05
7.63056e-05
0.000222373
0.000598224
0.000808396
0.000801976
0.00075921
0.000728502
0.000712112
0.000703788
0.000698562
0.000694914
0.000692204
0.000690161
0.000688566
0.000687201
0.000685911
0.000684603
0.000683201
0.000681723
0.000680236
0.00067885
0.000677724
0.000676998
0.000676732
0.000676878
0.000677301
0.000677835
0.000678361
0.000678822
0.000679184
0.000679458
0.00067968
0.000679879
0.000680081
0.000680304
0.000680556
0.00068084
0.000681152
0.000681488
0.000681836
0.000682181
0.000682496
0.000682749
0.000682901
0.000682916
0.000682762
0.000682425
0.00068192
0.000681312
0.000680737
0.000680437
0.000680451
9.09707e-06
3.16714e-05
3.74079e-05
4.11718e-05
4.41679e-05
5.15589e-05
4.92899e-05
5.12467e-05
5.45319e-05
5.93974e-05
6.37092e-05
7.74944e-05
7.779e-05
7.52016e-05
6.11378e-05
6.01269e-05
7.13066e-05
7.79973e-05
9.81e-05
9.54966e-05
9.34015e-05
0.00010551
9.93903e-05
0.000104931
0.000116814
0.000144123
0.00019725
0.000295736
0.000458761
0.000674029
0.000950292
0.00136748
0.00172211
0.00175708
0.00225547
0.00212662
0.00238321
0.00250065
0.00261878
0.0026346
0.00290119
0.00267494
0.00194869
0.00141814
0.000796849
0.000455574
0.00013831
5.25672e-05
7.37125e-05
0.000232592
0.000619301
0.000805451
0.000790045
0.000750862
0.000723866
0.000710548
0.000703351
0.000698375
0.000694779
0.000692091
0.000690062
0.000688477
0.000687121
0.000685837
0.000684533
0.000683133
0.000681655
0.000680169
0.000678781
0.000677652
0.000676923
0.000676653
0.000676795
0.000677214
0.000677742
0.000678264
0.000678719
0.000679076
0.000679346
0.000679564
0.000679759
0.000679959
0.000680178
0.000680427
0.000680707
0.000681016
0.000681349
0.000681695
0.000682036
0.000682347
0.000682595
0.000682742
0.000682752
0.000682592
0.00068225
0.000681741
0.000681128
0.000680549
0.000680245
0.000680256
1.0413e-05
2.29089e-05
3.26753e-05
3.83608e-05
4.22546e-05
4.70662e-05
5.12326e-05
5.49063e-05
5.96487e-05
6.74248e-05
7.67592e-05
9.04202e-05
0.00011433
0.000117191
9.13013e-05
8.07016e-05
7.55928e-05
7.69449e-05
8.23299e-05
8.78116e-05
8.66624e-05
9.04893e-05
9.59459e-05
0.000104833
0.000123486
0.000178517
0.000246056
0.000411018
0.0005723
0.000808839
0.0012041
0.0014983
0.00169219
0.00213531
0.00235361
0.00224779
0.00246001
0.00256026
0.00302279
0.00268795
0.00293463
0.00246552
0.00191747
0.00153836
0.000737552
0.000284929
0.000109066
4.44995e-05
6.3882e-05
0.000226684
0.00062241
0.00079535
0.000777564
0.00074299
0.000720236
0.000709628
0.00070303
0.000698221
0.000694674
0.000692007
0.000689992
0.000688416
0.000687066
0.000685787
0.000684487
0.00068309
0.000681613
0.000680126
0.000678738
0.000677607
0.000676876
0.000676604
0.000676744
0.000677159
0.000677685
0.000678203
0.000678656
0.000679009
0.000679277
0.000679492
0.000679685
0.000679882
0.000680099
0.000680345
0.000680623
0.000680931
0.000681261
0.000681605
0.000681944
0.000682253
0.000682498
0.000682641
0.000682647
0.000682484
0.000682139
0.000681627
0.000681013
0.000680431
0.000680125
0.000680134
2.33098e-05
1.517e-05
2.48382e-05
3.37459e-05
4.12235e-05
4.79039e-05
5.4414e-05
6.05713e-05
6.92763e-05
8.48518e-05
0.000108927
0.000141996
0.000174865
0.000184761
0.00016346
0.000135702
0.000108
9.2839e-05
8.80374e-05
9.88349e-05
8.7679e-05
0.000104143
9.82405e-05
0.00011046
0.000139191
0.000205077
0.000319157
0.000485262
0.000706585
0.00102961
0.00134311
0.00148616
0.00199786
0.00223974
0.00223149
0.00238416
0.00279845
0.00267147
0.00301087
0.00272955
0.00263642
0.00283224
0.00186101
0.00131846
0.000701824
0.000259144
9.03359e-05
3.81832e-05
5.75349e-05
0.000225183
0.000626457
0.000788141
0.000769583
0.000738626
0.000718746
0.000709086
0.000702777
0.00069809
0.000694588
0.000691942
0.00068994
0.000688374
0.00068703
0.000685756
0.000684458
0.000683063
0.000681587
0.000680101
0.000678712
0.00067758
0.000676848
0.000676575
0.000676714
0.000677128
0.000677652
0.000678168
0.000678619
0.000678971
0.000679236
0.00067945
0.000679641
0.000679837
0.000680052
0.000680297
0.000680574
0.00068088
0.000681209
0.000681551
0.000681889
0.000682196
0.000682439
0.00068258
0.000682584
0.000682419
0.000682072
0.000681559
0.000680944
0.00068036
0.000680053
0.000680061
4.29324e-05
1.21427e-05
1.75596e-05
2.60944e-05
3.66887e-05
4.67408e-05
5.59115e-05
6.6817e-05
8.43746e-05
0.00011588
0.000161753
0.000219234
0.000271552
0.000292591
0.000271716
0.000227787
0.000176949
0.000155113
0.000114563
0.000103738
0.000113965
0.000104205
0.000111398
0.000130277
0.000176381
0.000275081
0.000487694
0.000615813
0.000846495
0.00121067
0.00139384
0.00163398
0.00195398
0.00215306
0.00237819
0.00250942
0.00267319
0.00271741
0.00298806
0.00300134
0.00265888
0.00244486
0.0017982
0.0013997
0.000713731
0.000237459
7.82443e-05
3.41098e-05
5.83213e-05
0.000240546
0.000639835
0.000786094
0.000765793
0.00073651
0.000718059
0.000708754
0.000702569
0.000697974
0.000694514
0.000691889
0.000689901
0.000688343
0.000687006
0.000685736
0.000684442
0.000683049
0.000681573
0.000680087
0.000678698
0.000677566
0.000676833
0.00067656
0.000676699
0.000677112
0.000677636
0.000678151
0.0006786
0.000678951
0.000679215
0.000679427
0.000679618
0.000679812
0.000680027
0.000680271
0.000680546
0.000680851
0.00068118
0.000681521
0.000681857
0.000682163
0.000682405
0.000682545
0.000682547
0.000682381
0.000682033
0.00068152
0.000680904
0.00068032
0.000680013
0.00068002
6.08799e-05
1.71016e-05
1.57661e-05
2.02874e-05
2.93255e-05
4.10195e-05
5.40732e-05
7.31665e-05
0.000105074
0.000156745
0.000225145
0.000302156
0.000368696
0.000401999
0.000393209
0.000344597
0.000278172
0.000221285
0.000173485
0.000170084
0.000163899
0.00014133
0.000150545
0.000200078
0.000286392
0.00038274
0.000568812
0.000767059
0.00099855
0.0014165
0.00175108
0.00178452
0.00211016
0.00229874
0.00278959
0.00261679
0.00277313
0.00302991
0.00301006
0.00276266
0.00265199
0.0023633
0.00173259
0.00115163
0.000551074
0.000209925
6.83928e-05
3.23575e-05
6.67834e-05
0.000278175
0.000670133
0.000782993
0.000764696
0.000735363
0.000717471
0.000708414
0.000702416
0.000697871
0.000694446
0.000691843
0.000689869
0.00068832
0.000686989
0.000685723
0.000684432
0.000683041
0.000681567
0.000680081
0.000678691
0.000677559
0.000676827
0.000676554
0.000676692
0.000677105
0.000677629
0.000678143
0.000678592
0.000678942
0.000679206
0.000679417
0.000679607
0.000679801
0.000680015
0.000680258
0.000680532
0.000680837
0.000681164
0.000681505
0.00068184
0.000682145
0.000682386
0.000682525
0.000682526
0.00068236
0.000682012
0.000681498
0.000680882
0.000680299
0.000679991
0.000679998
7.34198e-05
3.27508e-05
2.23526e-05
2.05883e-05
2.49826e-05
3.56846e-05
5.28472e-05
8.18392e-05
0.000129331
0.000200056
0.000287696
0.000379686
0.000457543
0.00050277
0.000506544
0.000464943
0.00039555
0.000327992
0.000265111
0.000238294
0.000219949
0.000211681
0.000220203
0.000257175
0.000346858
0.000515967
0.000827019
0.000924347
0.00115907
0.0014132
0.00169987
0.00226646
0.00258174
0.00243306
0.00262566
0.00272236
0.00281476
0.00291503
0.00288255
0.0027776
0.00264128
0.00230883
0.00165491
0.00105082
0.000493657
0.000183658
5.97918e-05
3.21947e-05
8.07538e-05
0.000338799
0.000713441
0.000788853
0.000764166
0.000734592
0.000716914
0.00070797
0.000702363
0.000697781
0.000694383
0.0006918
0.000689841
0.000688301
0.000686976
0.000685714
0.000684426
0.000683038
0.000681565
0.000680079
0.00067869
0.000677557
0.000676825
0.000676552
0.000676691
0.000677104
0.000677628
0.000678142
0.000678591
0.00067894
0.000679203
0.000679414
0.000679603
0.000679796
0.00068001
0.000680252
0.000680526
0.00068083
0.000681157
0.000681497
0.000681832
0.000682136
0.000682376
0.000682514
0.000682515
0.000682349
0.000682001
0.000681487
0.000680871
0.000680288
0.000679981
0.000679987
7.96327e-05
5.2418e-05
3.73259e-05
2.89593e-05
2.76337e-05
3.65401e-05
5.82025e-05
9.74151e-05
0.000160237
0.000247085
0.000351146
0.000454782
0.000541134
0.000595048
0.000609028
0.000577066
0.000513933
0.000441626
0.000377824
0.000341336
0.000347998
0.000309385
0.000324313
0.000371908
0.000476099
0.000668115
0.000889968
0.00108918
0.00132239
0.00157371
0.00184966
0.00259895
0.00238661
0.00257467
0.00273326
0.00282119
0.00305829
0.00294663
0.00290044
0.00277505
0.00261813
0.00246419
0.00156456
0.000946593
0.000435598
0.00015798
5.20676e-05
3.29245e-05
9.96005e-05
0.00040413
0.000752065
0.000800559
0.00076459
0.000734096
0.000716689
0.0007071
0.000702251
0.000697695
0.000694318
0.000691757
0.000689814
0.000688283
0.000686965
0.000685707
0.000684423
0.000683037
0.000681565
0.00068008
0.00067869
0.000677557
0.000676825
0.000676553
0.000676692
0.000677106
0.00067763
0.000678144
0.000678593
0.000678941
0.000679204
0.000679414
0.000679603
0.000679796
0.000680009
0.000680251
0.000680525
0.000680828
0.000681154
0.000681494
0.000681828
0.000682132
0.000682371
0.000682509
0.00068251
0.000682344
0.000681996
0.000681482
0.000680866
0.000680284
0.000679977
0.000679983
7.90069e-05
6.29177e-05
5.17819e-05
4.26747e-05
3.85811e-05
4.72936e-05
7.49158e-05
0.000125838
0.000203276
0.000305881
0.000421467
0.000531536
0.0006216
0.000679788
0.000700903
0.000679516
0.000625299
0.000558666
0.000496793
0.000455497
0.000431704
0.000422458
0.000447373
0.000505641
0.00062606
0.000929178
0.00116748
0.00124245
0.00147889
0.00172977
0.00200285
0.00227283
0.0025121
0.00270215
0.00283142
0.00291336
0.00296613
0.00296864
0.00289532
0.00275636
0.00257449
0.00216732
0.00146235
0.000959396
0.000384483
0.00013466
4.55344e-05
3.48147e-05
0.000124513
0.000466942
0.000779216
0.000800522
0.000762818
0.000733721
0.000717101
0.000708208
0.000702056
0.000697574
0.00069425
0.000691714
0.000689786
0.000688266
0.000686954
0.000685701
0.00068442
0.000683037
0.000681566
0.000680082
0.000678691
0.000677559
0.000676827
0.000676555
0.000676695
0.00067711
0.000677634
0.000678148
0.000678596
0.000678945
0.000679207
0.000679417
0.000679606
0.000679798
0.00068001
0.000680252
0.000680525
0.000680828