/*--------------------------------*- C++ -*----------------------------------*\
  =========                 |
  \\      /  F ield         | OpenFOAM: The Open Source CFD Toolbox
   \\    /   O peration     | Website:  https://openfoam.org
    \\  /    A nd           | Version:  6
     \\/     M anipulation  |
\*---------------------------------------------------------------------------*/
FoamFile
{
    version     2.0;
    format      ascii;
    class       volScalarField;
    location    "0.005";
    object      AR;
}
// * * * * * * * * * * * * * * * * * * * * * * * * * * * * * * * * * * * * * //

dimensions      [0 0 0 0 0 0 0];

internalField   nonuniform List<scalar> 
8000
(
0.0136007
0.0136004
0.0136002
0.0135997
0.0135985
0.0135963
0.0135925
0.0135874
0.0135821
0.013577
0.0135716
0.0135658
0.0135597
0.0135548
0.0135521
0.013551
0.0135496
0.013546
0.0135393
0.0135254
0.0134948
0.0134196
0.013234
0.0131684
0.0128733
0.0124028
0.0121334
0.0121141
0.0121956
0.0122561
0.012238
0.0121437
0.0119943
0.0118328
0.0116662
0.0115448
0.0114245
0.0113334
0.011246
0.0111932
0.0111347
0.011146
0.0112526
0.0114264
0.0118086
0.0125412
0.0130625
0.0132306
0.0133872
0.013635
0.0137502
0.013774
0.0137799
0.01378
0.01378
0.01378
0.01378
0.01378
0.01378
0.01378
0.01378
0.01378
0.01378
0.01378
0.01378
0.01378
0.01378
0.01378
0.01378
0.01378
0.01378
0.01378
0.01378
0.01378
0.01378
0.01378
0.01378
0.01378
0.01378
0.01378
0.01378
0.01378
0.01378
0.01378
0.01378
0.01378
0.01378
0.01378
0.01378
0.01378
0.01378
0.01378
0.01378
0.01378
0.01378
0.01378
0.01378
0.01378
0.01378
0.01378
0.0136
0.0135984
0.0135985
0.0135981
0.013597
0.0135942
0.0135889
0.0135809
0.0135729
0.0135671
0.0135613
0.013555
0.0135481
0.0135413
0.013539
0.0135404
0.0135408
0.013538
0.0135327
0.0135205
0.0134891
0.0133771
0.0120723
0.0129132
0.0127622
0.0122322
0.0119184
0.0119916
0.0121601
0.0122572
0.012248
0.0121513
0.0119954
0.0118267
0.0116528
0.0115248
0.0114141
0.0113156
0.0112395
0.0111473
0.0111018
0.0111405
0.0112483
0.011422
0.0117974
0.0124958
0.0130603
0.0132681
0.0133514
0.0135909
0.0137345
0.0137717
0.0137797
0.01378
0.01378
0.01378
0.01378
0.01378
0.01378
0.01378
0.01378
0.01378
0.01378
0.01378
0.01378
0.01378
0.01378
0.01378
0.01378
0.01378
0.01378
0.01378
0.01378
0.01378
0.01378
0.01378
0.01378
0.01378
0.01378
0.01378
0.01378
0.01378
0.01378
0.01378
0.01378
0.01378
0.01378
0.01378
0.01378
0.01378
0.01378
0.01378
0.01378
0.01378
0.01378
0.01378
0.01378
0.01378
0.01378
0.01378
0.0135972
0.0135839
0.0135913
0.0135911
0.0135924
0.0135895
0.0135822
0.0135676
0.0135464
0.0135434
0.0135374
0.0135308
0.0135238
0.0135127
0.0135061
0.013516
0.013524
0.0135215
0.0135184
0.0135112
0.0134896
0.0134309
0.0131733
0.0132075
0.0130088
0.0123574
0.0113411
0.0118996
0.0121989
0.0123052
0.0122798
0.0121645
0.0119934
0.0118112
0.0116223
0.0114785
0.0113839
0.0112995
0.0112124
0.0111337
0.011089
0.0111013
0.0112257
0.0114052
0.0117619
0.0124341
0.0129896
0.0133429
0.0134514
0.0136522
0.0137529
0.0137751
0.01378
0.01378
0.01378
0.01378
0.01378
0.01378
0.01378
0.01378
0.01378
0.01378
0.01378
0.01378
0.01378
0.01378
0.01378
0.01378
0.01378
0.01378
0.01378
0.01378
0.01378
0.01378
0.01378
0.01378
0.01378
0.01378
0.01378
0.01378
0.01378
0.01378
0.01378
0.01378
0.01378
0.01378
0.01378
0.01378
0.01378
0.01378
0.01378
0.01378
0.01378
0.01378
0.01378
0.01378
0.01378
0.01378
0.01378
0.01378
0.0135998
0.013597
0.0135939
0.01359
0.0135862
0.0135828
0.0135759
0.0135638
0.013544
0.0135151
0.0134954
0.013489
0.0134826
0.0134994
0.0135127
0.0135164
0.013513
0.0134953
0.0134952
0.0134944
0.0134786
0.0134338
0.0133537
0.0133051
0.0131623
0.0128051
0.0124457
0.0123013
0.0123127
0.0123056
0.0122896
0.0121611
0.0119787
0.0117857
0.0115752
0.0114298
0.0113437
0.0112562
0.011195
0.0110873
0.0110726
0.0110851
0.0112121
0.011393
0.0117404
0.0124558
0.013152
0.0134614
0.0136027
0.013714
0.0137647
0.0137778
0.01378
0.01378
0.01378
0.01378
0.01378
0.01378
0.01378
0.01378
0.01378
0.01378
0.01378
0.01378
0.01378
0.01378
0.01378
0.01378
0.01378
0.01378
0.01378
0.01378
0.01378
0.01378
0.01378
0.01378
0.01378
0.01378
0.01378
0.01378
0.01378
0.01378
0.01378
0.01378
0.01378
0.01378
0.01378
0.01378
0.01378
0.01378
0.01378
0.01378
0.01378
0.01378
0.01378
0.01378
0.01378
0.01378
0.01378
0.01378
0.0135998
0.0135946
0.013582
0.0135727
0.0135583
0.0135645
0.0135623
0.0135532
0.0135394
0.0134967
0.0133595
0.0133854
0.0134374
0.0134923
0.0135082
0.013505
0.0134972
0.0134799
0.0134706
0.0134697
0.0134576
0.0134314
0.0133817
0.0132758
0.0131581
0.0129497
0.0125997
0.0118798
0.0121299
0.012311
0.0122912
0.0121404
0.0119503
0.0117374
0.0115188
0.0112479
0.0112792
0.0112192
0.0111072
0.0110655
0.0110546
0.0110677
0.0111526
0.0113693
0.0117166
0.0124573
0.0131996
0.0135328
0.0136723
0.0137445
0.0137699
0.0137786
0.01378
0.01378
0.01378
0.01378
0.01378
0.01378
0.01378
0.01378
0.01378
0.01378
0.01378
0.01378
0.01378
0.01378
0.01378
0.01378
0.01378
0.01378
0.01378
0.01378
0.01378
0.01378
0.01378
0.01378
0.01378
0.01378
0.01378
0.01378
0.01378
0.01378
0.01378
0.01378
0.01378
0.01378
0.01378
0.01378
0.01378
0.01378
0.01378
0.01378
0.01378
0.01378
0.01378
0.01378
0.01378
0.01378
0.01378
0.01378
0.0135994
0.0135923
0.0135735
0.0135501
0.0135445
0.0135439
0.0135579
0.0135576
0.0135479
0.0135262
0.0134961
0.0134922
0.0135016
0.0135124
0.0135127
0.0135011
0.0134758
0.0134524
0.0134119
0.0134207
0.0134162
0.0134098
0.0133666
0.0132556
0.0130308
0.0129389
0.0127637
0.0123046
0.0124443
0.0124741
0.0123466
0.0121045
0.0118831
0.0117011
0.0114885
0.0113504
0.011258
0.0111587
0.0110876
0.011043
0.011037
0.0110517
0.0110802
0.0113543
0.0116894
0.012415
0.0131906
0.0135568
0.0137
0.0137533
0.0137695
0.0137769
0.01378
0.01378
0.01378
0.01378
0.01378
0.01378
0.01378
0.01378
0.01378
0.01378
0.01378
0.01378
0.01378
0.01378
0.01378
0.01378
0.01378
0.01378
0.01378
0.01378
0.01378
0.01378
0.01378
0.01378
0.01378
0.01378
0.01378
0.01378
0.01378
0.01378
0.01378
0.01378
0.01378
0.01378
0.01378
0.01378
0.01378
0.01378
0.01378
0.01378
0.01378
0.01378
0.01378
0.01378
0.01378
0.01378
0.01378
0.01378
0.0135993
0.0135961
0.013589
0.0135806
0.0135723
0.0135655
0.0135599
0.0135537
0.0135445
0.0135344
0.0135229
0.0135135
0.0135147
0.0135154
0.0135066
0.0134855
0.0134578
0.0134023
0.0133058
0.013345
0.0133601
0.0133728
0.0133321
0.0131938
0.012418
0.0127446
0.0128391
0.0127676
0.0127024
0.0125497
0.0123315
0.0120905
0.0118656
0.0116573
0.0114634
0.0113229
0.0112228
0.011112
0.0110739
0.0109983
0.0110221
0.0110378
0.0111017
0.0113459
0.0116577
0.0123352
0.0131537
0.013544
0.0136955
0.013751
0.0137664
0.0137739
0.0137797
0.01378
0.01378
0.01378
0.01378
0.01378
0.01378
0.01378
0.01378
0.01378
0.01378
0.01378
0.01378
0.01378
0.01378
0.01378
0.01378
0.01378
0.01378
0.01378
0.01378
0.01378
0.01378
0.01378
0.01378
0.01378
0.01378
0.01378
0.01378
0.01378
0.01378
0.01378
0.01378
0.01378
0.01378
0.01378
0.01378
0.01378
0.01378
0.01378
0.01378
0.01378
0.01378
0.01378
0.01378
0.01378
0.01378
0.01378
0.0135894
0.0135907
0.01359
0.0135825
0.0135729
0.0135593
0.0135516
0.0135327
0.0135116
0.0135204
0.0135219
0.013524
0.013521
0.0135043
0.0134851
0.0134638
0.0134171
0.0133438
0.0131188
0.0132066
0.0132827
0.0132959
0.0132776
0.0131648
0.0128933
0.0129237
0.0129697
0.0128983
0.0127321
0.0124654
0.012188
0.011968
0.0117692
0.0116014
0.0114158
0.0112738
0.0111595
0.0110963
0.0110676
0.011024
0.0110121
0.011024
0.0110987
0.0113306
0.0116208
0.0122401
0.0131146
0.0135296
0.0136809
0.0137214
0.0137639
0.0137763
0.0137799
0.01378
0.01378
0.01378
0.01378
0.01378
0.01378
0.01378
0.01378
0.01378
0.01378
0.01378
0.01378
0.01378
0.01378
0.01378
0.01378
0.01378
0.01378
0.01378
0.01378
0.01378
0.01378
0.01378
0.01378
0.01378
0.01378
0.01378
0.01378
0.01378
0.01378
0.01378
0.01378
0.01378
0.01378
0.01378
0.01378
0.01378
0.01378
0.01378
0.01378
0.01378
0.01378
0.01378
0.01378
0.01378
0.01378
0.01378
0.0135837
0.0135866
0.013582
0.0135683
0.0135579
0.0135543
0.0135385
0.0135117
0.0134595
0.0134996
0.0135091
0.013517
0.0135142
0.0134988
0.0134782
0.0134514
0.0134017
0.0132888
0.0125862
0.0130317
0.0131764
0.0131996
0.0132027
0.0130894
0.0129432
0.0130128
0.0130089
0.0128958
0.0126125
0.0122541
0.0118919
0.0117905
0.0116726
0.0115134
0.011351
0.011227
0.0111078
0.0110865
0.0110686
0.0110301
0.010976
0.0109849
0.0110947
0.0113296
0.01158
0.0122042
0.0131056
0.0135447
0.0136955
0.0137478
0.0137681
0.0137775
0.0137799
0.01378
0.01378
0.01378
0.01378
0.01378
0.01378
0.01378
0.01378
0.01378
0.01378
0.01378
0.01378
0.01378
0.01378
0.01378
0.01378
0.01378
0.01378
0.01378
0.01378
0.01378
0.01378
0.01378
0.01378
0.01378
0.01378
0.01378
0.01378
0.01378
0.01378
0.01378
0.01378
0.01378
0.01378
0.01378
0.01378
0.01378
0.01378
0.01378
0.01378
0.01378
0.01378
0.01378
0.01378
0.01378
0.01378
0.01378
0.0135921
0.0135738
0.0135618
0.0135658
0.0135601
0.0135456
0.0135385
0.0135246
0.0135071
0.0135063
0.0135106
0.0135026
0.0134926
0.0134637
0.0133972
0.0134243
0.0133961
0.0132106
0.0126799
0.0129083
0.0130288
0.0129678
0.0130439
0.0129993
0.0129856
0.0130068
0.0129573
0.0128215
0.0125587
0.0121982
0.0119463
0.0117362
0.0115335
0.0114577
0.0112921
0.011097
0.011088
0.0110826
0.0110764
0.0110455
0.0109883
0.0110213
0.0110957
0.0113335
0.0116641
0.0122971
0.0131473
0.0135736
0.0137044
0.0137496
0.0137665
0.0137775
0.0137795
0.01378
0.01378
0.01378
0.01378
0.01378
0.01378
0.01378
0.01378
0.01378
0.01378
0.01378
0.01378
0.01378
0.01378
0.01378
0.01378
0.01378
0.01378
0.01378
0.01378
0.01378
0.01378
0.01378
0.01378
0.01378
0.01378
0.01378
0.01378
0.01378
0.01378
0.01378
0.01378
0.01378
0.01378
0.01378
0.01378
0.01378
0.01378
0.01378
0.01378
0.01378
0.01378
0.01378
0.01378
0.01378
0.01378
0.01378
0.0135731
0.0135848
0.0135803
0.0135727
0.0135593
0.0135367
0.0135211
0.0135092
0.0135062
0.0135021
0.0134906
0.0134764
0.013461
0.0134422
0.0134299
0.013422
0.0133823
0.0132004
0.0127667
0.0125757
0.0128764
0.0128024
0.0128614
0.0126808
0.0127997
0.0128893
0.0128043
0.0126666
0.012405
0.0121202
0.0118855
0.0116811
0.0115126
0.011387
0.0112558
0.0110935
0.011079
0.0110597
0.0110904
0.0110674
0.0110416
0.01103
0.0110972
0.0113513
0.0116932
0.0123533
0.0132151
0.0135997
0.0137174
0.0137533
0.0137696
0.0137774
0.0137791
0.0137799
0.01378
0.01378
0.01378
0.01378
0.01378
0.01378
0.01378
0.01378
0.01378
0.01378
0.01378
0.01378
0.01378
0.01378
0.01378
0.01378
0.01378
0.01378
0.01378
0.01378
0.01378
0.01378
0.01378
0.01378
0.01378
0.01378
0.01378
0.01378
0.01378
0.01378
0.01378
0.01378
0.01378
0.01378
0.01378
0.01378
0.01378
0.01378
0.01378
0.01378
0.01378
0.01378
0.01378
0.01378
0.01378
0.01378
0.0135962
0.013588
0.013572
0.0135465
0.0135316
0.0135159
0.0134979
0.0134827
0.0134274
0.0134281
0.0134257
0.0134163
0.0133717
0.013356
0.0133852
0.0133771
0.0133299
0.0131674
0.012786
0.0127419
0.0127972
0.0127693
0.0126586
0.012512
0.0126878
0.0127415
0.0126073
0.0124652
0.0121849
0.0118748
0.0117466
0.0115897
0.01144
0.0112233
0.0112496
0.0111354
0.0110611
0.0111001
0.0111103
0.011092
0.0110667
0.0110358
0.011077
0.011363
0.01173
0.0124043
0.0132728
0.0136226
0.0137302
0.0137554
0.0137687
0.0137769
0.0137788
0.0137791
0.01378
0.01378
0.01378
0.01378
0.01378
0.01378
0.01378
0.01378
0.01378
0.01378
0.01378
0.01378
0.01378
0.01378
0.01378
0.01378
0.01378
0.01378
0.01378
0.01378
0.01378
0.01378
0.01378
0.01378
0.01378
0.01378
0.01378
0.01378
0.01378
0.01378
0.01378
0.01378
0.01378
0.01378
0.01378
0.01378
0.01378
0.01378
0.01378
0.01378
0.01378
0.01378
0.01378
0.01378
0.01378
0.01378
0.0135933
0.0135658
0.0135346
0.013496
0.0134614
0.0134364
0.0134233
0.0133273
0.0127176
0.0129565
0.0131791
0.0132156
0.0132324
0.0132598
0.0132887
0.013275
0.0131622
0.0130556
0.0128213
0.012691
0.0125841
0.0126002
0.0124711
0.012341
0.0125431
0.0125616
0.0124445
0.0122636
0.012037
0.0117856
0.0116392
0.0114881
0.0113634
0.0112992
0.0112576
0.0111594
0.0110916
0.0110931
0.0111341
0.0111173
0.0110906
0.0110243
0.0110869
0.0113798
0.0117772
0.0125578
0.0133474
0.0136469
0.0137405
0.0137617
0.0137725
0.0137768
0.0137777
0.0137787
0.0137791
0.01378
0.01378
0.01378
0.01378
0.01378
0.01378
0.01378
0.01378
0.01378
0.01378
0.01378
0.01378
0.01378
0.01378
0.01378
0.01378
0.01378
0.01378
0.01378
0.01378
0.01378
0.01378
0.01378
0.01378
0.01378
0.01378
0.01378
0.01378
0.01378
0.01378
0.01378
0.01378
0.01378
0.01378
0.01378
0.01378
0.01378
0.01378
0.01378
0.01378
0.01378
0.01378
0.01378
0.01378
0.01378
0.0135581
0.0133973
0.0133652
0.0133345
0.0132718
0.0129201
0.0131534
0.0131493
0.0128641
0.0128808
0.0128971
0.0129533
0.0129834
0.0130259
0.0130826
0.0131141
0.013032
0.0128172
0.0127004
0.0125256
0.0121416
0.012378
0.0123613
0.0123252
0.0123305
0.0123191
0.01223
0.0121063
0.0118777
0.0116336
0.0115006
0.0113959
0.0112048
0.0112812
0.0112765
0.0112235
0.0111722
0.0111371
0.011162
0.0111422
0.0111147
0.0110679
0.0111587
0.0114133
0.0118497
0.0127416
0.0134051
0.0136749
0.0137484
0.0137654
0.013774
0.0137766
0.013777
0.0137775
0.0137787
0.0137792
0.01378
0.01378
0.01378
0.01378
0.01378
0.01378
0.01378
0.01378
0.01378
0.01378
0.01378
0.01378
0.01378
0.01378
0.01378
0.01378
0.01378
0.01378
0.01378
0.01378
0.01378
0.01378
0.01378
0.01378
0.01378
0.01378
0.01378
0.01378
0.01378
0.01378
0.01378
0.01378
0.01378
0.01378
0.01378
0.01378
0.01378
0.01378
0.01378
0.01378
0.01378
0.01378
0.01378
0.01378
0.0133997
0.0118018
0.0121677
0.0125088
0.0127303
0.0125406
0.0128267
0.0127154
0.0124366
0.0123924
0.0122097
0.0123881
0.0124634
0.0126048
0.0125355
0.0128287
0.0128977
0.012845
0.0126586
0.0123486
0.0121522
0.0122803
0.0122883
0.0122391
0.0121784
0.012026
0.0120601
0.0119218
0.0117175
0.0113189
0.0112882
0.0112342
0.0111934
0.0112032
0.0112117
0.0112065
0.0113162
0.0113113
0.0111654
0.0112048
0.0111161
0.0110865
0.0111263
0.0113524
0.0119217
0.0128808
0.0134648
0.0136924
0.0137521
0.0137665
0.0137746
0.0137767
0.0137768
0.0137768
0.0137776
0.01378
0.01378
0.01378
0.01378
0.01378
0.01378
0.01378
0.01378
0.01378
0.01378
0.01378
0.01378
0.01378
0.01378
0.01378
0.01378
0.01378
0.01378
0.01378
0.01378
0.01378
0.01378
0.01378
0.01378
0.01378
0.01378
0.01378
0.01378
0.01378
0.01378
0.01378
0.01378
0.01378
0.01378
0.01378
0.01378
0.01378
0.01378
0.01378
0.01378
0.01378
0.01378
0.01378
0.01378
0.01378
0.0130724
0.0123729
0.0121922
0.0115205
0.0120305
0.012292
0.0125391
0.0124067
0.01218
0.011868
0.0113079
0.0115374
0.0119053
0.0121904
0.0124117
0.0126198
0.0127332
0.0127386
0.0125482
0.0123377
0.0123091
0.0122883
0.0121961
0.0120731
0.0119137
0.0118949
0.0118476
0.0117336
0.0116203
0.011469
0.0113087
0.011369
0.0113355
0.0113567
0.0113732
0.0112663
0.0112776
0.0113875
0.0112203
0.0111783
0.0112643
0.0110927
0.0111654
0.0114957
0.0120386
0.0130456
0.013528
0.013709
0.0137556
0.0137668
0.0137752
0.0137771
0.0137772
0.0137768
0.0137751
0.0137792
0.01378
0.01378
0.01378
0.01378
0.01378
0.01378
0.01378
0.01378
0.01378
0.01378
0.01378
0.01378
0.01378
0.01378
0.01378
0.01378
0.01378
0.01378
0.01378
0.01378
0.01378
0.01378
0.01378
0.01378
0.01378
0.01378
0.01378
0.01378
0.01378
0.01378
0.01378
0.01378
0.01378
0.01378
0.01378
0.01378
0.01378
0.01378
0.01378
0.01378
0.01378
0.01378
0.01378
0.01378
0.0127044
0.0126087
0.0123062
0.0119317
0.0116775
0.0120798
0.0123142
0.0122836
0.0120478
0.0114063
0.0112368
0.0111018
0.0114156
0.0118282
0.0121445
0.0123388
0.0124812
0.0125458
0.0123845
0.0123459
0.0123097
0.0122373
0.0121279
0.0119092
0.0118114
0.0117714
0.0117003
0.0115779
0.0115114
0.0114399
0.0114699
0.0114259
0.0114309
0.0114415
0.0113436
0.0113691
0.0113741
0.0115018
0.0114488
0.0112246
0.0111883
0.0112572
0.011225
0.0115817
0.0121322
0.0131755
0.0135779
0.0137223
0.0137566
0.0137677
0.0137767
0.0137785
0.0137788
0.0137787
0.0137789
0.01378
0.01378
0.01378
0.01378
0.01378
0.01378
0.01378
0.01378
0.01378
0.01378
0.01378
0.01378
0.01378
0.01378
0.01378
0.01378
0.01378
0.01378
0.01378
0.01378
0.01378
0.01378
0.01378
0.01378
0.01378
0.01378
0.01378
0.01378
0.01378
0.01378
0.01378
0.01378
0.01378
0.01378
0.01378
0.01378
0.01378
0.01378
0.01378
0.01378
0.01378
0.01378
0.01378
0.01378
0.01378
0.0124821
0.0126041
0.0124106
0.012177
0.0118404
0.0120359
0.0122594
0.0122626
0.0120529
0.0117369
0.0114011
0.011202
0.0112671
0.0116154
0.0119804
0.0121906
0.0123071
0.0123699
0.0123147
0.0123076
0.0122712
0.012196
0.0121298
0.0120032
0.0118904
0.0118389
0.0118126
0.0117527
0.0117042
0.0116306
0.0115241
0.0113594
0.0113617
0.0115372
0.0114441
0.0116192
0.0116192
0.0115824
0.0115239
0.011449
0.0112303
0.0112061
0.0114259
0.0116685
0.0122939
0.0132824
0.0136245
0.0137313
0.0137573
0.0137729
0.0137786
0.0137791
0.0137794
0.0137798
0.01378
0.01378
0.01378
0.01378
0.01378
0.01378
0.01378
0.01378
0.01378
0.01378
0.01378
0.01378
0.01378
0.01378
0.01378
0.01378
0.01378
0.01378
0.01378
0.01378
0.01378
0.01378
0.01378
0.01378
0.01378
0.01378
0.01378
0.01378
0.01378
0.01378
0.01378
0.01378
0.01378
0.01378
0.01378
0.01378
0.01378
0.01378
0.01378
0.01378
0.01378
0.01378
0.01378
0.01378
0.01378
0.01378
0.0124183
0.0125342
0.0124645
0.0123579
0.0122003
0.0122491
0.012343
0.0123244
0.0121811
0.0120424
0.0119271
0.011915
0.0118558
0.0120591
0.0121712
0.0122242
0.0122544
0.012261
0.012232
0.0122368
0.0122002
0.0121621
0.0121374
0.0120769
0.0119776
0.0118589
0.0118745
0.0118667
0.0118193
0.0117117
0.0115543
0.0115061
0.0116043
0.0114873
0.0115732
0.0117565
0.0117523
0.0117068
0.0114239
0.0115163
0.011291
0.0114143
0.011515
0.0116781
0.0124866
0.0133708
0.0136571
0.0137401
0.0137641
0.0137752
0.013779
0.0137798
0.01378
0.01378
0.01378
0.01378
0.01378
0.01378
0.01378
0.01378
0.01378
0.01378
0.01378
0.01378
0.01378
0.01378
0.01378
0.01378
0.01378
0.01378
0.01378
0.01378
0.01378
0.01378
0.01378
0.01378
0.01378
0.01378
0.01378
0.01378
0.01378
0.01378
0.01378
0.01378
0.01378
0.01378
0.01378
0.01378
0.01378
0.01378
0.01378
0.01378
0.01378
0.01378
0.01378
0.01378
0.01378
0.01378
0.01378
0.01378
0.0124061
0.0124739
0.0124752
0.012454
0.0124074
0.0124041
0.0124245
0.0123934
0.0123202
0.0122843
0.0122885
0.0123232
0.0123858
0.0124195
0.012392
0.0123404
0.0122429
0.0121886
0.0121846
0.0121422
0.0121634
0.0121407
0.0121562
0.0121253
0.012068
0.0119865
0.0119561
0.0119431
0.011892
0.01179
0.0117032
0.0117588
0.0116509
0.0116529
0.011821
0.0118362
0.0117132
0.011773
0.0115295
0.011569
0.0114935
0.0113473
0.0116293
0.0118904
0.0126905
0.0134541
0.0136803
0.0137477
0.0137671
0.0137756
0.0137788
0.0137797
0.01378
0.01378
0.01378
0.01378
0.01378
0.01378
0.01378
0.01378
0.01378
0.01378
0.01378
0.01378
0.01378
0.01378
0.01378
0.01378
0.01378
0.01378
0.01378
0.01378
0.01378
0.01378
0.01378
0.01378
0.01378
0.01378
0.01378
0.01378
0.01378
0.01378
0.01378
0.01378
0.01378
0.01378
0.01378
0.01378
0.01378
0.01378
0.01378
0.01378
0.01378
0.01378
0.01378
0.01378
0.01378
0.01378
0.01378
0.01378
0.0124037
0.0124344
0.0124564
0.01247
0.0124693
0.0124653
0.0124625
0.0124487
0.0124366
0.0124669
0.0125259
0.0125903
0.0126413
0.0126398
0.0125815
0.0124932
0.0123742
0.0122751
0.0122184
0.0121317
0.0121257
0.0121654
0.0121492
0.0121279
0.0121032
0.0120682
0.0120034
0.0120036
0.0119544
0.0118655
0.0118991
0.0118698
0.0118783
0.0118908
0.0119108
0.0119123
0.011893
0.0118424
0.0117022
0.011515
0.0115442
0.0115358
0.0117082
0.011951
0.0128651
0.0135221
0.0136985
0.0137522
0.0137665
0.0137745
0.0137773
0.013779
0.01378
0.01378
0.01378
0.01378
0.01378
0.01378
0.01378
0.01378
0.01378
0.01378
0.01378
0.01378
0.01378
0.01378
0.01378
0.01378
0.01378
0.01378
0.01378
0.01378
0.01378
0.01378
0.01378
0.01378
0.01378
0.01378
0.01378
0.01378
0.01378
0.01378
0.01378
0.01378
0.01378
0.01378
0.01378
0.01378
0.01378
0.01378
0.01378
0.01378
0.01378
0.01378
0.01378
0.01378
0.01378
0.01378
0.01378
0.01378
0.0124033
0.0124157
0.0124339
0.0124539
0.0124703
0.0124798
0.0124899
0.0125093
0.0125482
0.0126277
0.0127211
0.0128001
0.0128426
0.0128258
0.0127542
0.0126479
0.0125235
0.0124098
0.0123051
0.0122145
0.0122033
0.0122004
0.0121575
0.0120627
0.012074
0.0120905
0.0120745
0.0120624
0.0120186
0.011923
0.0119024
0.0119921
0.0120086
0.0120172
0.0118714
0.0120087
0.0119642
0.011895
0.0118622
0.0117251
0.011641
0.0116354
0.0117984
0.0121754
0.013037
0.0135722
0.0137143
0.013755
0.0137669
0.0137727
0.0137761
0.0137767
0.0137796
0.01378
0.01378
0.01378
0.01378
0.01378
0.01378
0.01378
0.01378
0.01378
0.01378
0.01378
0.01378
0.01378
0.01378
0.01378
0.01378
0.01378
0.01378
0.01378
0.01378
0.01378
0.01378
0.01378
0.01378
0.01378
0.01378
0.01378
0.01378
0.01378
0.01378
0.01378
0.01378
0.01378
0.01378
0.01378
0.01378
0.01378
0.01378
0.01378
0.01378
0.01378
0.01378
0.01378
0.01378
0.01378
0.01378
0.01378
0.0124038
0.0124111
0.012425
0.0124462
0.0124721
0.0124996
0.0125384
0.0125993
0.0126884
0.01281
0.0129227
0.0129982
0.0130236
0.0129939
0.0129126
0.0127949
0.01266
0.0125291
0.0124051
0.0123165
0.0122618
0.012222
0.0121751
0.012132
0.0121199
0.0121039
0.0120805
0.0121071
0.0120981
0.0120947
0.0120982
0.01196
0.0119611
0.0120934
0.0120841
0.0120661
0.0120257
0.0119623
0.0118735
0.0117646
0.0116853
0.0116901
0.0119228
0.0123523
0.0131872
0.0136135
0.0137268
0.0137563
0.0137681
0.0137743
0.013776
0.013776
0.0137791
0.01378
0.01378
0.01378
0.01378
0.01378
0.01378
0.01378
0.01378
0.01378
0.01378
0.01378
0.01378
0.01378
0.01378
0.01378
0.01378
0.01378
0.01378
0.01378
0.01378
0.01378
0.01378
0.01378
0.01378
0.01378
0.01378
0.01378
0.01378
0.01378
0.01378
0.01378
0.01378
0.01378
0.01378
0.01378
0.01378
0.01378
0.01378
0.01378
0.01378
0.01378
0.01378
0.01378
0.01378
0.01378
0.01378
0.01378
0.0124054
0.0124145
0.0124304
0.0124574
0.0124971
0.0125501
0.0126293
0.0127401
0.0128738
0.013013
0.0131198
0.0131749
0.0131803
0.0131382
0.0130521
0.0129281
0.0127844
0.0126403
0.0125023
0.012386
0.01227
0.0122283
0.0121797
0.0121523
0.012136
0.0121245
0.0121344
0.0121587
0.0121712
0.0121839
0.0121861
0.0120827
0.0121698
0.0121666
0.0121494
0.0121217
0.0119802
0.0119933
0.0119151
0.0118018
0.0117256
0.01168
0.0120387
0.0125453
0.0133118
0.0136459
0.0137358
0.0137601
0.0137713
0.0137753
0.0137762
0.0137782
0.01378
0.01378
0.01378
0.0137798
0.01378
0.01378
0.01378
0.01378
0.01378
0.01378
0.01378
0.01378
0.01378
0.01378
0.01378
0.01378
0.01378
0.01378
0.01378
0.01378
0.01378
0.01378
0.01378
0.01378
0.01378
0.01378
0.01378
0.01378
0.01378
0.01378
0.01378
0.01378
0.01378
0.01378
0.01378
0.01378
0.01378
0.01378
0.01378
0.01378
0.01378
0.01378
0.01378
0.01378
0.01378
0.01378
0.01378
0.01378
0.0124092
0.012426
0.0124496
0.0124884
0.0125503
0.01264
0.012768
0.0129223
0.0130755
0.0132038
0.0132862
0.0133179
0.0133063
0.0132552
0.0131675
0.0130442
0.0128971
0.0127446
0.0125972
0.0124669
0.0123569
0.0122615
0.0121827
0.0121712
0.0121663
0.0121493
0.0121589
0.0122186
0.0122491
0.0122691
0.0122695
0.0122558
0.0122442
0.0122282
0.0122057
0.0121719
0.0121014
0.0120219
0.0119563
0.0118382
0.01177
0.0118228
0.0121851
0.0127365
0.013408
0.0136708
0.0137433
0.0137636
0.0137729
0.0137757
0.0137777
0.0137792
0.01378
0.01378
0.01378
0.01378
0.01378
0.01378
0.01378
0.01378
0.01378
0.01378
0.01378
0.01378
0.01378
0.01378
0.01378
0.01378
0.01378
0.01378
0.01378
0.01378
0.01378
0.01378
0.01378
0.01378
0.01378
0.01378
0.01378
0.01378
0.01378
0.01378
0.01378
0.01378
0.01378
0.01378
0.01378
0.01378
0.01378
0.01378
0.01378
0.01378
0.01378
0.01378
0.01378
0.01378
0.01378
0.01378
0.01378
0.01378
0.012418
0.0124525
0.0124911
0.0125466
0.0126364
0.0127678
0.0129366
0.0131098
0.0132543
0.0133574
0.0134126
0.013425
0.0134019
0.0133461
0.0132594
0.0131417
0.0129974
0.0128432
0.0126908
0.0125529
0.0124386
0.0123321
0.0122262
0.0122234
0.0122198
0.0122399
0.0122628
0.0122907
0.0123282
0.0123512
0.0123487
0.0123333
0.012311
0.012223
0.0122138
0.0122101
0.0121299
0.0120475
0.0119822
0.0118739
0.0118217
0.0119291
0.0123387
0.0129134
0.0134879
0.0136898
0.0137483
0.0137662
0.013774
0.013776
0.0137778
0.01378
0.01378
0.01378
0.01378
0.01378
0.01378
0.01378
0.01378
0.01378
0.01378
0.01378
0.01378
0.01378
0.01378
0.01378
0.01378
0.01378
0.01378
0.01378
0.01378
0.01378
0.01378
0.01378
0.01378
0.01378
0.01378
0.01378
0.01378
0.01378
0.01378
0.01378
0.01378
0.01378
0.01378
0.01378
0.01378
0.01378
0.01378
0.01378
0.01378
0.01378
0.01378
0.01378
0.01378
0.01378
0.01378
0.01378
0.01378
0.01378
0.012438
0.0125102
0.0125749
0.0126502
0.0127658
0.0129282
0.0131124
0.0132754
0.0133941
0.0134689
0.0135026
0.0135021
0.0134725
0.0134153
0.0133314
0.0132212
0.0130846
0.0129345
0.0127827
0.0126411
0.0125215
0.0124222
0.0123405
0.0123007
0.0122703
0.0123236
0.0123553
0.0123428
0.0124081
0.0124308
0.0124233
0.0124028
0.0123721
0.0123368
0.0123073
0.0122409
0.0121548
0.0120727
0.012009
0.011954
0.0119178
0.0120189
0.0125091
0.0130773
0.0135468
0.0137058
0.0137521
0.0137685
0.0137749
0.0137768
0.013779
0.01378
0.01378
0.01378
0.01378
0.01378
0.01378
0.01378
0.01378
0.01378
0.01378
0.01378
0.01378
0.01378
0.01378
0.01378
0.01378
0.01378
0.01378
0.01378
0.01378
0.01378
0.01378
0.01378
0.01378
0.01378
0.01378
0.01378
0.01378
0.01378
0.01378
0.01378
0.01378
0.01378
0.01378
0.01378
0.01378
0.01378
0.01378
0.01378
0.01378
0.01378
0.01378
0.01378
0.01378
0.01378
0.01378
0.01378
0.01378
0.01378
0.0124832
0.0126261
0.0127293
0.0128207
0.0129476
0.0131125
0.0132788
0.0134095
0.0134968
0.0135482
0.0135664
0.013557
0.0135242
0.0134679
0.0133882
0.0132854
0.0131589
0.0130172
0.0128716
0.0127342
0.0125983
0.0125224
0.0124495
0.0123996
0.0123743
0.012418
0.0124511
0.0124603
0.0124931
0.012508
0.0124919
0.0124669
0.0124293
0.012389
0.0123442
0.0122666
0.0121793
0.0120994
0.0120386
0.011987
0.0118828
0.0121372
0.012686
0.0131942
0.0135955
0.0137199
0.0137555
0.0137704
0.0137757
0.0137772
0.0137792
0.01378
0.01378
0.01378
0.01378
0.01378
0.01378
0.01378
0.01378
0.01378
0.01378
0.01378
0.01378
0.01378
0.01378
0.01378
0.01378
0.01378
0.01378
0.01378
0.01378
0.01378
0.01378
0.01378
0.01378
0.01378
0.01378
0.01378
0.01378
0.01378
0.01378
0.01378
0.01378
0.01378
0.01378
0.01378
0.01378
0.01378
0.01378
0.01378
0.01378
0.01378
0.01378
0.01378
0.01378
0.01378
0.01378
0.01378
0.01378
0.01378
0.0125833
0.0128306
0.0129713
0.0130618
0.0131703
0.0133014
0.0134229
0.0135146
0.013574
0.0136055
0.0136111
0.013596
0.0135627
0.0135088
0.0134339
0.0133382
0.013222
0.0130906
0.0129548
0.012828
0.012715
0.0126326
0.0125652
0.0125144
0.0124986
0.0125146
0.0125311
0.0125572
0.0125763
0.0125814
0.0125533
0.0125252
0.0124816
0.012431
0.0123736
0.012292
0.012204
0.0121265
0.0120712
0.0120269
0.0120531
0.0122695
0.0128565
0.0133193
0.0136349
0.0137311
0.0137592
0.0137721
0.0137763
0.013778
0.0137791
0.01378
0.01378
0.01378
0.01378
0.01378
0.01378
0.01378
0.01378
0.01378
0.01378
0.01378
0.01378
0.01378
0.01378
0.01378
0.01378
0.01378
0.01378
0.01378
0.01378
0.01378
0.01378
0.01378
0.01378
0.01378
0.01378
0.01378
0.01378
0.01378
0.01378
0.01378
0.01378
0.01378
0.01378
0.01378
0.01378
0.01378
0.01378
0.01378
0.01378
0.01378
0.01378
0.01378
0.01378
0.01378
0.01378
0.01378
0.01378
0.01378
0.0128095
0.0131414
0.0132749
0.0133315
0.0133913
0.0134669
0.0135378
0.0135925
0.0136276
0.013643
0.0136424
0.0136247
0.0135921
0.0135415
0.0134717
0.0133829
0.0132763
0.0131553
0.0130308
0.012916
0.0128184
0.0127396
0.012678
0.0126306
0.012603
0.0126076
0.0126325
0.0126483
0.0126568
0.0126494
0.0126116
0.012578
0.0125286
0.0124693
0.0124022
0.0123183
0.0122286
0.0121549
0.0121103
0.0120858
0.0121558
0.0124399
0.0130214
0.0134056
0.0136644
0.0137401
0.0137621
0.0137734
0.0137772
0.0137787
0.0137789
0.01378
0.01378
0.01378
0.01378
0.01378
0.01378
0.01378
0.01378
0.01378
0.01378
0.01378
0.01378
0.01378
0.01378
0.01378
0.01378
0.01378
0.01378
0.01378
0.01378
0.01378
0.01378
0.01378
0.01378
0.01378
0.01378
0.01378
0.01378
0.01378
0.01378
0.01378
0.01378
0.01378
0.01378
0.01378
0.01378
0.01378
0.01378
0.01378
0.01378
0.01378
0.01378
0.01378
0.01378
0.01378
0.01378
0.01378
0.01378
0.01378
0.0137341
0.0136894
0.0136548
0.0136317
0.0136254
0.0136337
0.0136493
0.013665
0.0136762
0.0136798
0.0136739
0.0136547
0.0136221
0.0135761
0.0135141
0.0134363
0.0133453
0.0132438
0.0131399
0.0130449
0.0129657
0.0129003
0.01285
0.0128106
0.0127805
0.0127804
0.0127858
0.0127844
0.012774
0.012748
0.0127037
0.0126543
0.0125965
0.0125285
0.0124498
0.012361
0.0122699
0.0122052
0.0121773
0.0121923
0.0123328
0.0127316
0.0132238
0.0135591
0.0137044
0.0137527
0.0137687
0.0137761
0.013779
0.0137792
0.0137791
0.01378
0.01378
0.01378
0.01378
0.01378
0.01378
0.01378
0.01378
0.01378
0.01378
0.01378
0.01378
0.01378
0.01378
0.01378
0.01378
0.01378
0.01378
0.01378
0.01378
0.01378
0.01378
0.01378
0.01378
0.01378
0.01378
0.01378
0.01378
0.01378
0.01378
0.01378
0.01378
0.01378
0.01378
0.01378
0.01378
0.01378
0.01378
0.01378
0.01378
0.01378
0.01378
0.01378
0.01378
0.01378
0.01378
0.01378
0.01378
0.01378
0.0137746
0.0137624
0.0137477
0.0137338
0.013723
0.0137165
0.0137141
0.0137139
0.0137131
0.0137093
0.0137008
0.0136851
0.0136568
0.0136166
0.0135647
0.0134997
0.0134245
0.0133433
0.0132601
0.013183
0.0131193
0.0130679
0.0130274
0.0129931
0.0129637
0.0129468
0.0129299
0.0129134
0.0128843
0.0128423
0.0127891
0.0127298
0.0126667
0.0125936
0.0125099
0.0124176
0.0123329
0.0122846
0.0122958
0.0123771
0.0126166
0.0130592
0.0134059
0.0136426
0.0137328
0.0137614
0.0137731
0.0137783
0.0137798
0.01378
0.01378
0.01378
0.01378
0.01378
0.01378
0.01378
0.01378
0.01378
0.01378
0.01378
0.01378
0.01378
0.01378
0.01378
0.01378
0.01378
0.01378
0.01378
0.01378
0.01378
0.01378
0.01378
0.01378
0.01378
0.01378
0.01378
0.01378
0.01378
0.01378
0.01378
0.01378
0.01378
0.01378
0.01378
0.01378
0.01378
0.01378
0.01378
0.01378
0.01378
0.01378
0.01378
0.01378
0.01378
0.01378
0.01378
0.01378
0.01378
0.01378
0.01378
0.0137792
0.0137762
0.0137711
0.0137644
0.0137572
0.0137505
0.013745
0.0137403
0.0137352
0.0137286
0.0137191
0.0137052
0.0136838
0.0136502
0.0136071
0.0135547
0.0134942
0.0134298
0.0133652
0.0133039
0.0132509
0.0132065
0.0131689
0.0131335
0.0130991
0.013067
0.0130381
0.0130031
0.0129597
0.0129081
0.0128497
0.0127866
0.0127235
0.0126496
0.0125632
0.0124742
0.0124094
0.0123957
0.0124618
0.0126301
0.0129332
0.0133049
0.0135357
0.0136956
0.0137502
0.0137674
0.0137757
0.013779
0.01378
0.01378
0.01378
0.01378
0.01378
0.01378
0.01378