/*--------------------------------*- C++ -*----------------------------------*\
  =========                 |
  \\      /  F ield         | OpenFOAM: The Open Source CFD Toolbox
   \\    /   O peration     | Website:  https://openfoam.org
    \\  /    A nd           | Version:  6
     \\/     M anipulation  |
\*---------------------------------------------------------------------------*/
FoamFile
{
    version     2.0;
    format      ascii;
    class       volScalarField;
    location    "0.005";
    object      C2H2;
}
// * * * * * * * * * * * * * * * * * * * * * * * * * * * * * * * * * * * * * //

dimensions      [0 0 0 0 0 0 0];

internalField   nonuniform List<scalar> 
8000
(
3.13591e-17
9.77823e-13
6.43359e-12
6.85475e-11
1.05399e-09
1.61597e-08
1.45277e-07
5.21802e-07
9.49489e-07
1.33337e-06
1.69233e-06
2.02647e-06
2.35667e-06
2.59833e-06
2.63476e-06
2.62713e-06
2.86454e-06
3.50035e-06
4.54363e-06
7.33386e-06
1.70666e-05
4.78919e-05
0.000128246
0.000140298
0.000431092
0.00158597
0.0025173
0.00270644
0.00247679
0.00224553
0.00235656
0.00290613
0.00370503
0.00428249
0.0046073
0.00468749
0.00478295
0.00481993
0.0048186
0.00477511
0.00470931
0.00471542
0.00481551
0.00476516
0.00424461
0.000869928
7.86498e-05
8.24162e-05
8.25164e-05
3.06612e-05
4.97838e-06
5.62924e-07
6.40265e-09
0
0
0
0
0
0
0
0
0
0
0
0
0
0
0
0
0
0
0
0
0
0
0
0
0
0
0
0
0
0
0
0
0
0
0
0
0
0
0
0
0
0
0
0
0
0
0
5.05165e-16
9.1228e-12
2.53223e-11
2.35113e-10
2.49805e-09
3.48873e-08
2.95198e-07
8.98299e-07
1.52177e-06
2.09698e-06
2.57512e-06
2.93193e-06
3.26547e-06
3.60068e-06
3.56402e-06
3.32819e-06
3.42943e-06
4.02357e-06
5.02161e-06
7.82063e-06
1.81879e-05
6.24055e-05
0.00236018
0.00024075
0.000545989
0.00207603
0.00326858
0.00320705
0.00263593
0.0022396
0.00230013
0.00286452
0.00369825
0.00429147
0.0046122
0.00473595
0.0047772
0.00482181
0.00481343
0.00472026
0.0046563
0.00471068
0.00481275
0.00476429
0.00426986
0.00105619
8.96902e-05
8.03394e-05
0.00010579
4.06302e-05
8.49115e-06
8.99517e-07
2.91978e-09
0
0
0
0
0
0
0
0
0
0
0
0
0
0
0
0
0
0
0
0
0
0
0
0
0
0
0
0
0
0
0
0
0
0
0
0
0
0
0
0
0
0
0
0
0
0
0
3.63326e-12
1.41567e-07
3.48189e-12
4.02186e-07
1.13671e-08
1.11915e-07
6.31409e-07
1.57444e-06
1.44266e-06
3.75916e-06
4.40239e-06
4.76207e-06
4.97356e-06
5.64043e-06
3.33295e-06
2.65065e-06
4.48464e-06
5.35202e-06
6.51162e-06
8.99514e-06
1.66354e-05
4.11221e-05
0.000121419
0.000123109
0.000294523
0.0017099
0.00241529
0.00348559
0.00246184
0.00199314
0.00211802
0.00278838
0.00369954
0.00431317
0.0046232
0.0047681
0.00480321
0.00481014
0.00478601
0.00470821
0.00464395
0.00465172
0.0047899
0.00479895
0.00436878
0.00132025
8.02394e-05
6.96955e-05
1.29991e-05
2.59646e-05
5.05069e-06
5.14635e-07
4.01991e-11
0
0
0
0
0
0
0
0
0
0
0
0
0
0
0
0
0
0
0
0
0
0
0
0
0
0
0
0
0
0
0
0
0
0
0
0
0
0
0
0
0
0
0
0
0
0
0
5.19784e-16
1.4875e-10
4.6847e-09
4.11706e-08
1.66873e-07
3.95467e-07
9.98735e-07
2.07854e-06
3.79791e-06
3.35275e-06
9.59378e-06
1.01993e-05
9.96256e-06
4.06294e-06
5.23747e-06
4.91112e-06
5.64026e-06
9.126e-06
5.70969e-06
1.24889e-05
1.86128e-05
1.21148e-05
7.26413e-05
9.20279e-05
0.000156649
0.000614353
0.00151658
0.00200366
0.00195345
0.00120826
0.00205618
0.0028025
0.00374454
0.0043455
0.0046416
0.00476006
0.00481016
0.0048164
0.004772
0.00464282
0.00462745
0.00463633
0.00478043
0.00479643
0.00440697
0.00123566
7.53783e-05
4.54849e-05
3.50681e-05
1.28809e-05
2.19649e-06
2.55422e-07
1.14677e-12
0
0
0
0
0
0
0
0
0
0
0
0
0
0
0
0
0
0
0
0
0
0
0
0
0
0
0
0
0
0
0
0
0
0
0
0
0
0
0
0
0
0
0
0
0
0
0
7.37868e-14
1.74897e-10
5.74921e-07
3.48452e-07
8.71845e-07
1.03721e-06
1.41761e-06
9.03608e-07
4.27442e-06
4.31093e-06
1.94777e-05
1.6749e-05
1.04351e-05
8.54878e-06
5.9687e-06
3.44646e-06
8.16671e-06
6.9856e-06
1.74796e-05
1.94507e-05
9.79667e-06
1.26472e-05
5.98859e-05
3.2309e-05
5.41023e-05
0.000289915
0.000908494
0.00377418
0.00283025
0.00194236
0.00204908
0.00289975
0.00381706
0.00443443
0.00470784
0.00249218
0.00482147
0.0047841
0.00465947
0.00462084
0.00460867
0.00461913
0.00471556
0.00481513
0.00444382
0.00124637
6.34722e-05
3.34508e-05
1.91463e-05
6.18058e-06
1.10325e-06
1.6476e-07
0
0
0
0
0
0
0
0
0
0
0
0
0
0
0
0
0
0
0
0
0
0
0
0
0
0
0
0
0
0
0
0
0
0
0
0
0
0
0
0
0
0
0
0
0
0
0
0
2.68093e-12
3.0085e-11
1.48869e-07
5.47309e-07
1.95474e-06
7.33379e-07
1.76095e-06
2.32405e-06
3.54448e-06
5.63645e-06
9.81976e-06
1.01137e-05
7.87703e-06
6.06479e-06
5.92905e-06
7.74021e-06
1.34688e-05
1.01079e-05
3.54306e-05
1.4519e-05
3.73901e-05
1.55668e-05
6.27107e-05
3.53002e-05
9.97197e-05
0.000267328
0.00052575
0.00122028
0.00101631
0.00124201
0.00177701
0.00304614
0.00250728
0.00445014
0.00473234
0.00480049
0.00480811
0.00472062
0.0046401
0.004597
0.00458951
0.00460236
0.0023947
0.00481063
0.0044854
0.00145681
7.02277e-05
3.24329e-05
1.40503e-05
4.57025e-06
1.39048e-06
3.6367e-07
0
0
0
0
0
0
0
0
0
0
0
0
0
0
0
0
0
0
0
0
0
0
0
0
0
0
0
0
0
0
0
0
0
0
0
0
0
0
0
0
0
0
0
0
0
0
0
0
1.86956e-12
4.47409e-10
3.63149e-08
3.11064e-07
8.43306e-07
1.25616e-06
8.94428e-07
2.7417e-06
3.59098e-06
4.31674e-06
2.64255e-06
3.02995e-06
2.83296e-06
5.90946e-06
7.36093e-06
1.15501e-05
1.85847e-05
3.51107e-05
2.99487e-05
5.87671e-05
2.17034e-05
5.69875e-05
2.49142e-05
0.000120891
0.00103226
0.00043855
0.000364071
0.000509748
0.000589019
0.000983931
0.00188249
0.00303496
0.00394989
0.00447233
0.00472115
0.0047957
0.00477716
0.00465792
0.00462436
0.0024086
0.00457205
0.00458691
0.00464661
0.00480819
0.00453136
0.00184795
8.71644e-05
4.21564e-05
1.66533e-05
5.05016e-06
2.26326e-06
6.95973e-07
0
0
0
0
0
0
0
0
0
0
0
0
0
0
0
0
0
0
0
0
0
0
0
0
0
0
0
0
0
0
0
0
0
0
0
0
0
0
0
0
0
0
0
0
0
0
0
0
1.79913e-07
3.08505e-07
4.14834e-08
3.94771e-07
8.85021e-07
7.64745e-07
2.69349e-06
4.35946e-06
3.24953e-06
5.34349e-06
5.16833e-06
5.22715e-06
5.78492e-06
8.57408e-06
5.73232e-06
8.05163e-06
1.35641e-05
2.24646e-05
0.000163817
4.55371e-05
8.43e-05
8.42304e-05
3.36213e-05
0.000136153
0.00028968
0.000138896
0.00023321
0.000283288
0.000524304
0.00135112
0.00252875
0.0034812
0.00416882
0.00451737
0.00475422
0.00480097
0.00471308
0.00464057
0.00461382
0.00457133
0.00455849
0.00457081
0.00464284
0.0048142
0.00457908
0.00233555
0.000106982
8.74059e-06
1.79079e-05
3.13528e-08
2.61226e-08
4.14996e-07
0
0
0
0
0
0
0
0
0
0
0
0
0
0
0
0
0
0
0
0
0
0
0
0
0
0
0
0
0
0
0
0
0
0
0
0
0
0
0
0
0
0
0
0
0
0
0
0
1.71259e-07
3.92739e-07
1.87417e-07
1.21279e-06
6.20795e-07
2.39876e-06
1.30476e-06
6.91353e-06
8.0842e-06
8.94414e-06
4.06023e-06
3.76102e-06
8.39865e-06
1.1848e-05
1.62561e-05
9.72195e-06
1.56726e-05
2.97228e-05
0.000569723
0.000186463
0.000129163
5.83446e-05
0.000130288
7.73181e-05
0.000131489
0.000223389
0.000221716
0.00030418
0.000849569
0.00223254
0.00283938
0.00304663
0.00435989
0.00465267
0.00478143
0.00476892
0.00464711
0.00462665
0.0046088
0.00457206
0.00241222
0.00241012
0.00463785
0.00481341
0.00262506
0.00183483
0.000122283
4.67504e-05
1.55943e-05
4.05624e-06
1.95743e-06
3.09259e-07
0
0
0
0
0
0
0
0
0
0
0
0
0
0
0
0
0
0
0
0
0
0
0
0
0
0
0
0
0
0
0
0
0
0
0
0
0
0
0
0
0
0
0
0
0
0
0
0
4.77985e-13
2.76133e-07
4.22118e-07
6.26411e-07
2.13296e-06
1.2186e-06
4.50908e-06
6.61595e-06
1.02305e-05
5.21444e-06
1.16539e-05
1.42273e-05
6.58285e-06
9.04012e-06
1.62727e-05
1.30627e-05
4.10041e-05
9.72008e-05
0.000485624
0.000275443
0.000212652
0.000280373
0.000244237
0.000287573
0.000282023
0.000264453
0.000310258
0.000469602
0.00107492
0.00147715
0.00353093
0.0041932
0.00281801
0.00468512
0.00479459
0.00239517
0.00462625
0.00461658
0.00460901
0.00458085
0.00241089
0.00456206
0.00463677
0.00481368
0.00451964
0.00203627
5.54041e-05
4.10649e-05
1.35518e-05
3.64659e-06
2.24376e-06
3.12159e-07
0
0
0
0
0
0
0
0
0
0
0
0
0
0
0
0
0
0
0
0
0
0
0
0
0
0
0
0
0
0
0
0
0
0
0
0
0
0
0
0
0
0
0
0
0
0
0
0
1.63605e-07
3.59087e-07
1.28807e-06
2.33607e-06
3.58401e-06
2.41087e-06
3.54908e-06
5.09351e-06
1.78072e-05
2.07452e-05
2.4871e-05
9.55982e-06
3.35372e-05
1.23644e-05
3.94608e-05
4.16456e-05
5.20397e-05
4.21616e-05
0.000189024
0.000602145
0.000354015
0.000361898
0.000468923
0.000651276
0.000411478
0.000434243
0.00057579
0.000858999
0.00166115
0.00276388
0.00369026
0.0042904
0.00462156
0.00475894
0.00477303
0.00239653
0.00461281
0.00240278
0.00461371
0.00459463
0.00457383
0.00456714
0.0046357
0.00480628
0.0044635
0.00175821
9.20732e-05
3.57887e-05
1.15197e-05
2.75792e-08
1.62819e-06
3.14831e-07
1.22612e-08
0
0
0
0
0
0
0
0
0
0
0
0
0
0
0
0
0
0
0
0
0
0
0
0
0
0
0
0
0
0
0
0
0
0
0
0
0
0
0
0
0
0
0
0
0
0
0
3.31535e-08
2.15188e-06
3.93349e-06
2.98376e-06
9.43858e-06
5.11929e-06
6.36328e-06
2.84298e-05
5.80146e-05
5.85944e-05
6.0887e-05
6.31869e-05
7.34386e-05
2.40281e-05
6.51733e-05
6.62375e-05
7.76145e-05
4.89879e-05
0.000192189
0.000337111
0.000505553
0.000595465
0.000856213
0.00123474
0.00081026
0.00073273
0.00105475
0.00117446
0.00247986
0.00264634
0.00407664
0.00447378
0.00470781
0.00241379
0.00476802
0.00465237
0.00240457
0.00461539
0.00462243
0.00460982
0.00459231
0.00456934
0.00239543
0.00480588
0.00437767
0.00121409
3.75908e-05
4.61017e-06
9.42837e-06
3.63352e-06
1.81995e-08
3.552e-07
1.5169e-07
5.01015e-09
0
0
0
0
0
0
0
0
0
0
0
0
0
0
0
0
0
0
0
0
0
0
0
0
0
0
0
0
0
0
0
0
0
0
0
0
0
0
0
0
0
0
0
0
0
0
1.53003e-06
8.64221e-06
1.82934e-05
7.87679e-06
1.14702e-05
1.5265e-05
5.31269e-05
2.73005e-05
0.000552708
0.000207913
0.000123477
0.000109101
0.000165661
6.16308e-05
0.000115795
0.00011044
5.38663e-05
0.000181957
0.000350319
0.000487552
0.000996751
0.000982383
0.00136913
0.00149119
0.00121665
0.00120283
0.00155882
0.00154862
0.00305759
0.00393604
0.00432135
0.00461879
0.00476249
0.00478748
0.00476604
0.00465763
0.0024004
0.00239944
0.00463315
0.00462451
0.00460883
0.0024053
0.00239429
0.00480406
0.0042433
0.000800524
7.19054e-05
3.99882e-06
7.54136e-06
3.16206e-06
9.27327e-07
3.63711e-07
2.90322e-07
1.87795e-07
2.81409e-09
0
0
0
0
0
0
0
0
0
0
0
0
0
0
0
0
0
0
0
0
0
0
0
0
0
0
0
0
0
0
0
0
0
0
0
0
0
0
0
0
0
0
0
0
0
7.50291e-06
3.88657e-05
4.60957e-05
4.65497e-05
0.000125039
0.000178298
7.02278e-05
0.000168885
0.000414515
0.000537058
0.000617243
0.000543471
0.000471383
0.000373599
0.00027502
0.00020666
0.000218995
0.000226305
0.000558715
0.00090855
0.0018522
0.00167027
0.00175576
0.00190567
0.00149483
0.00196827
0.00159513
0.00276336
0.00363479
0.00431237
0.00459285
0.00474441
0.00241113
0.00477006
0.0047614
0.00469549
0.00463517
0.00238904
0.00464478
0.00463757
0.00462455
0.00459248
0.00470434
0.00477585
0.00399284
0.000533724
5.96846e-05
2.01303e-05
5.9123e-06
2.44938e-06
6.90129e-07
3.78013e-07
3.38567e-07
2.9935e-07
1.83802e-07
0
0
0
0
0
0
0
0
0
0
0
0
0
0
0
0
0
0
0
0
0
0
0
0
0
0
0
0
0
0
0
0
0
0
0
0
0
0
0
0
0
0
0
0
0
1.65455e-05
0.00346263
0.00151073
0.00103983
0.000710977
0.00089439
0.000437499
0.00050882
0.00123804
0.00162769
0.00163639
0.00170296
0.00126497
0.00109243
0.00101315
0.000491386
0.000347597
0.000375443
0.000679753
0.00141989
0.0018109
0.00161369
0.00205262
0.00224958
0.00247205
0.00163416
0.00293592
0.00350449
0.00416851
0.00248712
0.00248209
0.0024134
0.0024099
0.00240604
0.00239865
0.00238854
0.00472225
0.00473856
0.00239235
0.00470902
0.00239176
0.00460539
0.00240037
0.00252902
0.00370759
0.000213238
4.85374e-05
1.68403e-05
5.21464e-06
2.23803e-06
6.19302e-07
3.75657e-07
3.57295e-07
3.46689e-07
2.78753e-07
0
0
0
0
0
0
0
0
0
0
0
0
0
0
0
0
0
0
0
0
0
0
0
0
0
0
0
0
0
0
0
0
0
0
0
0
0
0
0
0
0
0
0
0
0
0.000339288
0.00150899
0.00244135
0.00289798
0.00303459
0.00154586
0.00101679
0.00148438
0.00187431
0.00344575
0.00445045
0.00266989
0.00339143
0.00241041
0.00156801
0.000886951
0.000595132
0.00055491
0.000992764
0.0014329
0.00194427
0.00205808
0.00246062
0.00294477
0.00205949
0.00361631
0.00379864
0.00417947
0.00445277
0.00467787
0.00249678
0.00476742
0.00477304
0.00473951
0.00471429
0.00237964
0.00237883
0.00472212
0.00240097
0.00240667
0.00477733
0.00239499
0.00241403
0.00469505
0.0032064
0.00015237
3.94344e-05
1.37402e-05
4.47913e-06
2.20235e-06
5.4603e-07
3.36915e-07
3.23438e-07
3.51307e-07
5.43044e-07
0
0
0
0
0
0
0
0
0
0
0
0
0
0
0
0
0
0
0
0
0
0
0
0
0
0
0
0
0
0
0
0
0
0
0
0
0
0
0
0
0
0
0
0
0
0.000194494
0.000648911
0.00193257
0.0038279
0.00446971
0.00303817
0.00187817
0.00204008
0.00310507
0.00264033
0.00467994
0.00239298
0.00269048
0.00402227
0.0027604
0.00183263
0.00123957
0.00101304
0.00159616
0.00177423
0.00195944
0.0023157
0.00281025
0.00233381
0.00307659
0.0041163
0.00302314
0.00292198
0.00285675
0.00274826
0.00468503
0.00473279
0.00468982
0.0046544
0.0024289
0.00242345
0.0024297
0.00461829
0.0046997
0.00241036
0.00241197
0.00477546
0.00242215
0.00457421
0.00193842
5.95383e-05
7.44722e-06
1.12077e-05
4.22205e-06
2.03327e-06
3.84959e-07
2.12123e-07
1.38201e-07
1.82862e-07
1.11593e-07
0
0
0
0
0
0
0
0
0
0
0
0
0
0
0
0
0
0
0
0
0
0
0
0
0
0
0
0
0
0
0
0
0
0
0
0
0
0
0
0
0
0
0
0
0
0.000748383
0.000717607
0.00132804
0.00278962
0.00428673
0.00216829
0.00222395
0.00220655
0.00333155
0.00438145
0.00475323
0.00242031
0.00250665
0.00253011
0.003735
0.00262546
0.00149481
0.00166114
0.00145906
0.00196539
0.00215936
0.00174302
0.00286717
0.00342006
0.00382761
0.00402129
0.00412103
0.00430314
0.00439966
0.00448982
0.00463464
0.00247212
0.00244411
0.00451513
0.00241691
0.00435442
0.00437892
0.00448222
0.00461784
0.00473184
0.00241406
0.00241492
0.00475634
0.00436799
0.00157241
4.04894e-05
2.66929e-05
9.57649e-06
3.92518e-06
8.19288e-07
2.01213e-07
8.09035e-09
0
0
0
0
0
0
0
0
0
0
0
0
0
0
0
0
0
0
0
0
0
0
0
0
0
0
0
0
0
0
0
0
0
0
0
0
0
0
0
0
0
0
0
0
0
0
0
0
0.000882653
0.000825746
0.00105828
0.0015954
0.00268446
0.00233234
0.00168162
0.00180856
0.00276939
0.00348738
0.00382646
0.00378351
0.00256556
0.00241302
0.00278449
0.00246828
0.00227223
0.00222584
0.00238468
0.00235504
0.00256799
0.00278184
0.0028961
0.00317156
0.00361862
0.00316814
0.00404245
0.00297267
0.00414908
0.00434704
0.00279588
0.0026709
0.00437816
0.00247341
0.00261158
0.00401339
0.00405713
0.00422944
0.00265317
0.00466324
0.00248475
0.00476105
0.00464397
0.00231879
0.00106711
5.4491e-05
2.23192e-05
7.74572e-06
2.70267e-06
5.41156e-07
4.49664e-08
0
0
0
0
0
0
0
0
0
0
0
0
0
0
0
0
0
0
0
0
0
0
0
0
0
0
0
0
0
0
0
0
0
0
0
0
0
0
0
0
0
0
0
0
0
0
0
0
0
0.000858387
0.000846453
0.00105277
0.00115579
0.00127754
0.00124943
0.00110191
0.00129936
0.00184782
0.00211995
0.0021122
0.00193245
0.00161433
0.00139164
0.00152714
0.0017524
0.00235738
0.00269225
0.00269685
0.00184163
0.00282127
0.00179476
0.00284693
0.00300371
0.00328935
0.00369917
0.00383201
0.00385616
0.00394834
0.00298715
0.00286862
0.00402484
0.00264803
0.00261549
0.00380693
0.00378626
0.00294042
0.00404897
0.00318644
0.00458555
0.00471098
0.0025073
0.00441233
0.00367889
0.000608684
4.24069e-05
1.88012e-05
6.08256e-06
1.98709e-06
4.92333e-07
1.46873e-07
0
0
0
0
0
0
0
0
0
0
0
0
0
0
0
0
0
0
0
0
0
0
0
0
0
0
0
0
0
0
0
0
0
0
0
0
0
0
0
0
0
0
0
0
0
0
0
0
0
0.000844297
0.000837212
0.000900879
0.00101703
0.00108191
0.00101405
0.000973846
0.00103372
0.00111283
0.00102203
0.000844017
0.000699083
0.000580426
0.000551295
0.000649333
0.000923989
0.00154621
0.00161016
0.00250979
0.00306311
0.001911
0.00284538
0.0029333
0.00304529
0.00317563
0.00336245
0.00199889
0.00362543
0.00370989
0.00262506
0.00365521
0.00368147
0.00361535
0.00357012
0.00352555
0.0035476
0.00365413
0.00385895
0.00338719
0.00316223
0.00464373
0.00464212
0.00422968
0.00188438
0.00032302
3.46372e-05
1.56573e-05
5.24013e-06
2.25163e-06
6.31123e-07
3.11482e-07
4.14642e-08
0
0
0
0
0
0
0
0
0
0
0
0
0
0
0
0
0
0
0
0
0
0
0
0
0
0
0
0
0
0
0
0
0
0
0
0
0
0
0
0
0
0
0
0
0
0
0
0
0.000853415
0.000873631
0.000854292
0.000872618
0.000964434
0.00101068
0.000989322
0.00094198
0.000812655
0.000623305
0.000473493
0.000377038
0.000304657
0.000286587
0.000331698
0.000475487
0.000826882
0.00133271
0.00194109
0.00182102
0.00183554
0.00263888
0.00291213
0.00183208
0.00179939
0.00327479
0.00332696
0.00332078
0.00340858
0.00201849
0.00200892
0.00324673
0.00316765
0.00313504
0.00235758
0.0032046
0.00341874
0.00304821
0.00311565
0.00424439
0.00446655
0.0044359
0.00396765
0.00254912
0.00019289
2.96854e-05
1.26925e-05
4.63853e-06
2.18771e-06
9.68126e-07
4.07892e-07
3.43401e-07
0
0
0
0
0
0
0
0
0
0
0
0
0
0
0
0
0
0
0
0
0
0
0
0
0
0
0
0
0
0
0
0
0
0
0
0
0
0
0
0
0
0
0
0
0
0
0
0
0.000877773
0.000920995
0.000909952
0.000860646
0.000838389
0.000853822
0.000797722
0.000673628
0.000511017
0.000391704
0.00029837
0.000226884
0.00018499
0.000163589
0.000185383
0.000266414
0.000440635
0.000825367
0.00134412
0.00186124
0.00222435
0.00249838
0.00281044
0.00307652
0.0031352
0.00319771
0.001763
0.0030618
0.00299506
0.00294076
0.0028723
0.00169959
0.00168292
0.00286474
0.00291163
0.0029962
0.00318505
0.00347153
0.00380886
0.00415592
0.00435643
0.00432061
0.0035349
0.00189675
9.8848e-05
2.51074e-05
1.02737e-05
4.31014e-06
1.96578e-06
6.45231e-07
4.30001e-07
4.28706e-07
4.05844e-09
0
0
0
0
0
0
0
0
0
0
0
0
0
0
0
0
0
0
0
0
0
0
0
0
0
0
0
0
0
0
0
0
0
0
0
0
0
0
0
0
0
0
0
0
0
0
0
0.000914519
0.000978562
0.000976328
0.000906103
0.000797758
0.000645139
0.000496003
0.000339092
0.000275417
0.000199884
0.000162234
0.000136725
0.000116914
0.000102628
0.000103225
0.000150681
0.000261492
0.000479822
0.000920902
0.00145288
0.0016489
0.00245444
0.00277621
0.00294276
0.00302245
0.00304822
0.00294359
0.00275476
0.00263328
0.00255437
0.00251964
0.00162055
0.00257436
0.002592
0.00266551
0.00278205
0.00308979
0.00334184
0.00367825
0.00406298
0.00426678
0.00274789
0.00308658
0.00125941
5.89625e-05
2.12661e-05
8.50963e-06
3.58098e-06
1.18783e-06
5.22361e-07
3.98601e-07
2.4168e-07
0
0
0
0
0
0
0
0
0
0
0
0
0
0
0
0
0
0
0
0
0
0
0
0
0
0
0
0
0
0
0
0
0
0
0
0
0
0
0
0
0
0
0
0
0
0
0
0
0.000962798
0.00103143
0.00101373
0.000879183
0.000666717
0.00044049
0.000282638
0.000192342
0.000129376
0.000101377
8.62117e-05
8.03858e-05
7.44972e-05
6.63973e-05
6.24444e-05
8.26424e-05
0.0001582
0.00031093
0.000629072
0.00108372
0.00164494
0.00223232
0.00273354
0.00279707
0.00280645
0.00177312
0.00171538
0.00242509
0.00227877
0.0021965
0.00219412
0.00225264
0.00230056
0.00236261
0.00244589
0.00258848
0.00289403
0.0032344
0.00351446
0.003959
0.00414875
0.00393834
0.00251117
0.000622161
4.22784e-05
1.8201e-05
6.95513e-06
2.82612e-06
8.28036e-07
4.69775e-07
2.76918e-07
0
0
0
0
0
0
0
0
0
0
0
0
0
0
0
0
0
0
0
0
0
0
0
0
0
0
0
0
0
0
0
0
0
0
0
0
0
0
0
0
0
0
0
0
0
0
0
0
0
0.00101523
0.00103186
0.000921325
0.000741666
0.000509267
0.000322739
0.000172535
0.000103984
6.56735e-05
4.93606e-05
4.75358e-05
4.96753e-05
5.00751e-05
4.6628e-05
4.18034e-05
4.87439e-05
9.27048e-05
0.000203675
0.000417569
0.000817684
0.00125821
0.00182094
0.001856
0.00245528
0.00246645
0.00233939
0.00221378
0.00208891
0.00194228
0.00187
0.00189569
0.00196561
0.00205105
0.00207053
0.00229945
0.0024315
0.00277376
0.0031328
0.00342013
0.00384478
0.00398857
0.00355266
0.00194964
0.000391263
3.4364e-05
1.58532e-05
5.93559e-06
2.19996e-06
6.78679e-07
4.26766e-07
2.6471e-07
0
0
0
0
0
0
0
0
0
0
0
0
0
0
0
0
0
0
0
0
0
0
0
0
0
0
0
0
0
0
0
0
0
0
0
0
0
0
0
0
0
0
0
0
0
0
0
0
0
0.00104289
0.000881568
0.000695767
0.000581436
0.000398474
0.000215738
0.000111404
5.46865e-05
3.16095e-05
2.64494e-05
2.94507e-05
3.3898e-05
3.64119e-05
3.63633e-05
3.402e-05
3.44223e-05
5.4958e-05
0.000128128
0.00028528
0.000598424
0.00097681
0.0013995
0.0018108
0.00202129
0.00171856
0.00192664
0.00180479
0.0014811
0.00163334
0.0015742
0.00162215
0.00170809
0.00181896
0.00193719
0.00202341
0.00229675
0.00265876
0.00302811
0.00331578
0.00353522
0.00363645
0.00319145
0.00137955
0.00014451
2.97618e-05
1.35285e-05
5.2644e-06
1.67613e-06
5.75119e-07
3.37033e-07
2.75024e-08
0
0
0
0
0
0
0
0
0
0
0
0
0
0
0
0
0
0
0
0
0
0
0
0
0
0
0
0
0
0
0
0
0
0
0
0
0
0
0
0
0
0
0
0
0
0
0
0
0
0.000933997
0.000623802
0.000511827
0.000394981
0.000256694
0.000131001
5.95517e-05
2.9617e-05
1.67002e-05
1.67091e-05
2.08726e-05
2.54813e-05
2.90024e-05
3.10794e-05
3.06219e-05
2.92167e-05
3.66861e-05
7.80914e-05
0.000187812
0.000406549
0.000514963
0.0010485
0.00134553
0.00157807
0.00142305
0.00154243
0.00143947
0.00143367
0.00133681
0.0013057
0.00137442
0.00146904
0.00159622
0.00172164
0.00185819
0.00217435
0.00254046
0.0029129
0.00319441
0.00340016
0.00202645
0.00269535
0.000875125
0.000105516
2.5602e-05
1.11286e-05
4.54031e-06
1.2419e-06
4.59595e-07
3.07614e-07
0
0
0
0
0
0
0
0
0
0
0
0
0
0
0
0
0
0
0
0
0
0
0
0
0
0
0
0
0
0
0
0
0
0
0
0
0
0
0
0
0
0
0
0
0
0
0
0
0
0
0.000642567
0.000345865
0.000259861
0.000193621
0.000124454
6.84641e-05
3.42113e-05
1.69821e-05
1.05271e-05
1.20316e-05
1.63897e-05
2.06048e-05
2.43311e-05
2.71557e-05
2.82773e-05
2.73724e-05
2.89925e-05
4.87736e-05
0.000117423
0.000262782
0.000507807
0.000755
0.000971231
0.00116538
0.0012395
0.00120566
0.00103229
0.00112095
0.00107253
0.00106477
0.00115617
0.00124921
0.00138957
0.00154415
0.0017289
0.00204328
0.00241901
0.00279345
0.00305403
0.00323012
0.00307516
0.00219901
0.000496885
5.91844e-05
2.18337e-05
9.15106e-06
3.71949e-06
9.00013e-07
3.90938e-07
2.52646e-07
3.66336e-09
0
0
0
0
0
0
0
0
0
0
0
0
0
0
0
0
0
0
0
0
0
0
0
0
0
0
0
0
0
0
0
0
0
0
0
0
0
0
0
0
0
0
0
0
0
0
0
0
0
0.000335272
0.000111058
7.57876e-05
6.40668e-05
4.72541e-05
2.9155e-05
1.64653e-05
9.60544e-06
7.16157e-06
9.81415e-06
1.37319e-05
1.74155e-05
2.08878e-05
2.39566e-05
2.60955e-05
2.63439e-05
2.60269e-05
3.41701e-05
7.1561e-05
0.000160147
0.000304141
0.000497071
0.000669092
0.00082256
0.000922454
0.000789479
0.000772992
0.000858809
0.000835792
0.000851464
0.000793784
0.00105278
0.00119355
0.00137958
0.00158587
0.00190267
0.00229958
0.0026676
0.00288009
0.00296599
0.00263269
0.00161053
0.00024591
2.36492e-05
1.87179e-05
7.4232e-06
3.08442e-06
7.36613e-07
3.1295e-07
1.87168e-07
1.06599e-07
0
0
0
0
0
0
0
0
0
0
0
0
0
0
0
0
0
0
0
0
0
0
0
0
0
0
0
0
0
0
0
0
0
0
0
0
0
0
0
0
0
0
0
0
0
0
0
0
0
8.80446e-06
9.15468e-06
9.45434e-06
9.76958e-06
9.22382e-06
7.67215e-06
5.87259e-06
4.72697e-06
5.11289e-06
7.85794e-06
1.09721e-05
1.41494e-05
1.74476e-05
2.05351e-05
2.33166e-05
2.49282e-05
2.49484e-05
2.59805e-05
3.66239e-05
6.83145e-05
0.000126176
0.000220878
0.000335303
0.000439992
0.000515529
0.000528808
0.000521184
0.000519337
0.000523941
0.000560449
0.000654133
0.000777648
0.000915549
0.00108426
0.00132641
0.00166778
0.00210159
0.00243638
0.00258135
0.00250396
0.00196513
0.000793819
7.78475e-05
2.93307e-05
1.35257e-05
4.87037e-06
1.45912e-06
4.23166e-07
6.26836e-08
0
0
0
0
0
0
0
0
0
0
0
0
0
0
0
0
0
0
0
0
0
0
0
0
0
0
0
0
0
0
0
0
0
0
0
0
0
0
0
0
0
0
0
0
0
0
0
0
0
0
0
7.60061e-07
1.16455e-06
1.54012e-06
1.7285e-06
1.86877e-06
1.99465e-06
2.13865e-06
2.54407e-06
3.89215e-06
6.14928e-06
8.57952e-06
1.07685e-05
1.3486e-05
1.63734e-05
1.89786e-05
2.0993e-05
2.17894e-05
2.15243e-05
2.23518e-05
2.8397e-05
4.34232e-05
7.47871e-05
0.000120006
0.00016941
0.000213907
0.000236056
0.000246768
0.000254217
0.00026682
0.000295915
0.000361736
0.000473017
0.000586888
0.00075543
0.000995338
0.00137176
0.00181264
0.00207479
0.00206971
0.00178694
0.00107258
0.00018565
2.37564e-05
2.10907e-05
8.36301e-06
2.92036e-06
7.46196e-07
2.23586e-07
0
0
0
0
0
0
0
0
0
0
0
0
0
0
0
0
0
0
0
0
0
0
0
0
0
0
0
0
0
0
0
0
0
0
0
0
0
0
0
0
0
0
0
0
0
0
0
0
0
0
0
0
7.67825e-08
2.20553e-07
3.57805e-07
5.02607e-07
6.36712e-07
8.30211e-07
1.17834e-06
1.82332e-06
3.08248e-06
4.8588e-06
6.78415e-06
8.59938e-06
1.04395e-05
1.30481e-05
1.53631e-05
1.70864e-05
1.78913e-05
1.75783e-05
1.66278e-05
1.63477e-05
1.78411e-05
2.36712e-05
3.5721e-05
5.31788e-05
7.02535e-05
8.26016e-05
9.08642e-05
9.83967e-05
0.000114472
0.000138925
0.000183593
0.000251362
0.000365662
0.000516493
0.000749161
0.00112125
0.0014844
0.00161522
0.00144
0.0010069
0.000388838
5.92937e-05
2.84965e-05
1.38255e-05
4.96878e-06
1.58606e-06
4.52753e-07
3.39006e-08
0
0
0
0
0
0
0
0
0
0
0
0
0
0
0
0
0
0
0
0
0
0
0
0
0
0
0
0
0
0
0
0
0
0
0
0
0
0
0
0
0
0
0
0
0
0
0
0
0
0
0
0
1.3422e-08
5.0341e-08
1.0933e-07
1.94058e-07
3.358e-07
5.70465e-07
9.44846e-07
1.54547e-06
2.54899e-06
3.909e-06
5.42785e-06
6.96589e-06
8.5675e-06
1.04844e-05
1.27513e-05
1.429e-05
1.49642e-05
1.46604e-05
1.35275e-05
1.20481e-05
1.08277e-05
1.06079e-05
1.16194e-05
1.46234e-05
1.95025e-05
2.65912e-05
3.28713e-05
4.07419e-05
5.33153e-05
7.10792e-05
0.000102854
0.000147875
0.000243677
0.000374592
0.00058925
0.000910964
0.00112864
0.0010993
0.00081249
0.000372319
8.00536e-05
3.27262e-05
1.95381e-05
8.36573e-06
3.13445e-06
8.87491e-07
2.97783e-07
2.24023e-09
0
0
0
0
0
0
0
0
0
0
0
0
0
0
0
0
0
0
0
0
0
0
0
0
0
0
0
0
0
0
0
0
0
0
0
0
0
0
0
0
0
0
0
0
0
0
0
0
0
0
0
0
0
1.69698e-08
4.94008e-08
1.29876e-07
2.85313e-07
5.33796e-07
9.21061e-07
1.45873e-06
2.1811e-06
3.21389e-06
4.40774e-06
5.71239e-06
7.20966e-06
8.98174e-06
1.08949e-05
1.24939e-05
1.32333e-05
1.30547e-05
1.21762e-05
1.0824e-05
9.26912e-06
7.88139e-06
6.99961e-06
7.02081e-06
8.0916e-06
1.03268e-05
1.32743e-05
1.76998e-05
2.56498e-05
3.8341e-05
6.20952e-05
9.82568e-05
0.000181281
0.00029463
0.000479553
0.000705535
0.00075093
0.000612342
0.00032436
7.60337e-05
3.10416e-05
2.49695e-05
1.28526e-05
4.66922e-06
1.47613e-06
4.79892e-07
7.53579e-08
0
0
0
0
0
0
0
0
0
0
0
0
0
0
0
0
0
0
0
0
0
0
0
0
0
0
0
0
0
0
0
0
0
0
0
0
0
0
0
0
0
0
0
0
0
0
0
0
0
0
0
0
0
0
4.40063e-09
5.37459e-08
1.47326e-07
3.1991e-07
5.64388e-07
8.61886e-07
1.30259e-06
1.81153e-06
2.59468e-06
3.57516e-06
5.45498e-06
7.89934e-06
1.06771e-05
1.29396e-05
1.46107e-05
1.51699e-05
1.47115e-05
1.34487e-05
1.16354e-05
9.55234e-06
7.49687e-06
5.73811e-06
4.51513e-06
3.97066e-06
4.27962e-06
5.01004e-06
7.50378e-06
1.29945e-05
2.40213e-05
4.50578e-05
7.98375e-05
0.000151738
0.000243802
0.000378834
0.000473158
0.000398093
0.000231346
9.20735e-05
2.61711e-05
2.64197e-05
1.58692e-05
6.95372e-06
2.60643e-06
7.16063e-07
2.14028e-07
0
0
0
0
0
0
0
0
0
0
0
0
0
0
0
0
0
0
0
0
0
0
0
0
0
0
0
0
0
0
0
0
0
0
0
0
0
0
0
0
0
0
0
0
0
0
0
0
0
0
0
0
0
0
0
1.74225e-09
5.28994e-08
1.44125e-07
2.93591e-07
4.53645e-07
6.385e-07
8.26171e-07
1.18938e-06
1.91581e-06
3.81088e-06
6.61046e-06
9.67948e-06
1.32415e-05
1.61892e-05
1.79067e-05
1.83439e-05
1.74836e-05
1.56073e-05
1.31008e-05
1.03341e-05
7.63709e-06
5.26676e-06
3.39281e-06
2.16935e-06
1.98743e-06
2.50667e-06
4.15567e-06
8.96478e-06
1.97332e-05
3.87741e-05
7.17157e-05
0.000112265
0.000166494
0.000237919
0.00025492
0.000148254
5.19105e-05
2.71692e-05
2.04195e-05
1.66384e-05
9.1183e-06
3.65487e-06
1.13199e-06
4.09518e-07
8.45732e-09
0
0
0
0
0
0
0
0
0
0
0
0
0
0
0
0
0
0
0
0
0
0
0
0
0
0
0
0
0
0
0
0
0
0
0
0
0
0
0
0
0
0
0
0
0
0
0
0
0
0
0
0
0
0
0
0
2.51325e-08
7.39453e-08
1.5597e-07
2.28129e-07
2.37652e-07
2.14423e-07
3.81596e-07
1.37843e-06
3.78427e-06
7.12536e-06
1.06621e-05
1.48355e-05
1.90419e-05
2.12452e-05
2.17733e-05
2.05999e-05
1.80542e-05
1.47365e-05
1.1224e-05
7.93814e-06
5.16185e-06
3.08122e-06
1.90244e-06
1.74702e-06
2.23724e-06
3.29982e-06
9.52741e-06
2.041e-05
3.34282e-05
4.5419e-05
6.44242e-05
9.26266e-05
0.000119152
0.000100917
3.71032e-05
1.47059e-05
1.97032e-05
1.40737e-05
9.45875e-06
4.38141e-06
1.75168e-06
6.30486e-07
2.80312e-07
0
0
0
0
0
0
0
0
0
0
0
0
0
0
0
0
0
0
0
0
0
0
0
0
0
0
0
0
0
0
0
0
0
0
0
0
0
0
0
0
0
0
0
0
0
0
0
0
0
0
0
0
0
0
0
0
0
0
3.71728e-08
6.76711e-08
6.9651e-08
1.08633e-07
1.22583e-07
6.51801e-08
6.77752e-07
3.04263e-06
6.53434e-06
1.03216e-05
1.49205e-05
2.0225e-05
2.34263e-05
2.45481e-05
2.33537e-05
2.02701e-05
1.61867e-05
1.19659e-05
8.16676e-06
5.08303e-06
2.86925e-06
1.68451e-06
1.58582e-06
2.14495e-06
5.11288e-06
1.16128e-05
1.79289e-05
2.10795e-05
2.40751e-05
3.09766e-05
3.82414e-05
4.40639e-05
2.81576e-05
1.27742e-05
1.28921e-05
1.45531e-05
8.67852e-06
4.36092e-06
2.16158e-06
7.47049e-07
3.50897e-07
1.38113e-08
0
0
0
0
0
0
0
0
0
0
0
0
0
0
0
0
0
0
0
0
0
0
0
0
0
0
0
0
0
0
0
0
0
0
0
0
0
0
0
0
0
0
0
0
0
0
0
0
0
0
0
0
0
0
0
0
0
0
1.0082e-08
2.0854e-08
5.04791e-08
7.75021e-08
8.52998e-08
5.60881e-08
3.02534e-07
2.06327e-06
5.38994e-06
9.25245e-06
1.41755e-05
2.00783e-05
2.42435e-05
2.61817e-05
2.53027e-05
2.19713e-05
1.73317e-05
1.25621e-05
8.38127e-06
5.08759e-06
2.78434e-06
1.56066e-06
1.61398e-06
3.69106e-06
7.45722e-06
1.01098e-05
1.06661e-05
9.82055e-06
1.06543e-05
1.14594e-05
1.35525e-05
1.35261e-05
1.22558e-05
1.19969e-05
1.07714e-05
9.35146e-06
4.60277e-06
2.23942e-06
8.62608e-07
3.74316e-07
5.22872e-08
0
0
0
0
0
0
0
0
0
0
0
0
0
0
0
0
0
0
0
0
0
0
0
0
0
0
0
0
0
0
0
0
0
0
0
0
0
0
0
0
0
0
0
0
0
0
0
0
0
0
0
0
0
0
0
0
0
0
0
0
7.93422e-09
2.08909e-08
5.32155e-08
6.53589e-08
4.84435e-08
1.70502e-07
1.16975e-06
4.03932e-06
7.72551e-06
1.27953e-05
1.89248e-05
2.382e-05
2.65728e-05
2.62846e-05
2.3083e-05
1.82201e-05
1.31489e-05
8.75558e-06
5.34395e-06
3.02061e-06
2.02308e-06
2.42257e-06
3.8663e-06
5.2805e-06
5.69987e-06
5.36439e-06
5.77333e-06
7.6689e-06
9.51735e-06
1.31097e-05
1.02712e-05
1.20607e-05
1.09879e-05
7.95192e-06
5.20243e-06
2.54316e-06
9.33007e-07
4.27502e-07
7.75821e-08
0
0
0
0
0
0
0
0
0
0
0
0
0
0
0
0
0
0
0
0
0
0
0
0
0
0
0
0
0
0
0
0
0
0
0
0
0
0
0
0
0
0
0
0
0
0
0
0
0
0
0
0
0
0
0
0
0
0
0
0
0
0
9.87476e-09
2.47892e-08
4.08857e-08
3.24461e-08
1.32482e-07
5.50917e-07
2.6635e-06
6.20919e-06
1.09257e-05
1.69708e-05
2.23524e-05
2.58031e-05
2.62943e-05
2.36179e-05
1.89335e-05
1.38652e-05
9.4556e-06
6.08836e-06
3.85482e-06
2.73145e-06
2.63552e-06
3.07974e-06
3.42817e-06
3.75192e-06
4.83099e-06
7.43719e-06
1.24914e-05
1.26212e-05
1.30407e-05
1.11553e-05
1.05105e-05
8.08349e-06
4.65156e-06
2.63574e-06
1.08797e-06
5.39708e-07
2.01296e-07
0
0
0
0
0
0
0
0
0
0
0
0
0
0
0
0
0
0
0
0
0
0
0
0
0
0
0
0
0
0
0
0
0
0
0
0
0
0
0
0
0
0
0
0
0
0
0
0
0
0
0
0
0
0
0
0
0
0
0
0
0
0
0
0
0
2.23714e-08
1.54764e-08
7.41843e-08
3.24514e-07
1.40038e-06
4.44127e-06
8.48465e-06
1.42355e-05
1.99658e-05
2.39542e-05
2.53224e-05
2.35405e-05
1.94798e-05
1.47693e-05
1.06218e-05
7.44315e-06
5.19667e-06
3.6549e-06
3.06702e-06
3.18192e-06
3.54425e-06
4.76193e-06
7.34143e-06
1.08243e-05
1.45711e-05
1.38177e-05
1.10887e-05
1.03405e-05
7.77054e-06
4.67156e-06
2.318e-06
1.08837e-06
5.53163e-07
2.35487e-07
0
0
0
0
0
0
0
0
0
0
0
0
0
0
0
0
0
0
0
0
0
0
0
0
0
0
0
0
0
0
0
0
0
0
0
0
0
0
0
0
0
0
0
0
0
0
0
0
0
0
0
0
0
0
0
0
0
0
0
0
0
0
0
0
0
0
5.74265e-09
7.62269e-09
3.12905e-08
1.70679e-07
5.84318e-07
2.59176e-06
6.07135e-06
1.10362e-05
1.66707e-05
2.10864e-05
2.33166e-05
2.26907e-05
1.9687e-05
1.57575e-05
1.22157e-05
9.48088e-06
7.63216e-06
5.34035e-06
4.42765e-06
5.29687e-06
5.60646e-06
7.28667e-06
1.00926e-05
1.27526e-05
1.3365e-05
1.29932e-05
7.77744e-06