/*--------------------------------*- C++ -*----------------------------------*\
  =========                 |
  \\      /  F ield         | OpenFOAM: The Open Source CFD Toolbox
   \\    /   O peration     | Website:  https://openfoam.org
    \\  /    A nd           | Version:  6
     \\/     M anipulation  |
\*---------------------------------------------------------------------------*/
FoamFile
{
    version     2.0;
    format      ascii;
    class       volScalarField;
    location    "0.005";
    object      C2H3;
}
// * * * * * * * * * * * * * * * * * * * * * * * * * * * * * * * * * * * * * //

dimensions      [0 0 0 0 0 0 0];

internalField   nonuniform List<scalar> 
8000
(
7.6567e-28
4.08914e-23
3.19218e-22
4.92177e-21
1.24033e-19
3.47911e-18
6.65163e-17
6.68279e-16
3.4961e-15
1.18611e-14
3.05609e-14
6.41202e-14
1.18942e-13
1.78358e-13
1.84297e-13
1.74941e-13
2.44629e-13
6.28845e-13
2.66178e-12
2.2166e-11
4.44783e-10
2.56993e-08
2.88328e-06
2.7257e-06
2.09507e-05
8.896e-05
0.00013388
0.000142466
0.00013233
0.000121045
0.000126477
0.000152801
0.000181164
0.000184532
0.000163632
0.000138525
0.00011894
0.000105261
9.1968e-05
8.3626e-05
7.98173e-05
8.07141e-05
8.8519e-05
0.000112245
0.000170524
4.5858e-05
1.67132e-06
6.39297e-07
1.35558e-07
5.24469e-10
2.04583e-12
6.83866e-14
2.00865e-15
0
0
0
0
0
0
0
0
0
0
0
0
0
0
0
0
0
0
0
0
0
0
0
0
0
0
0
0
0
0
0
0
0
0
0
0
0
0
0
0
0
0
0
0
0
0
0
2.31108e-26
9.07375e-22
2.32506e-21
2.61776e-20
3.9372e-19
9.7286e-18
2.12429e-16
2.833e-15
1.97299e-14
7.38388e-14
1.84033e-13
3.3823e-13
5.64816e-13
9.46149e-13
8.66872e-13
5.80017e-13
6.47973e-13
1.54268e-12
5.13741e-12
3.20568e-11
5.86102e-10
5.87115e-08
0.000108477
8.50502e-06
2.80503e-05
0.000118874
0.000164077
0.00016287
0.00014114
0.000121173
0.000123693
0.000150912
0.000180846
0.000183658
0.000160823
0.000139294
0.00011659
0.000105404
9.05329e-05
8.36891e-05
7.94326e-05
7.95712e-05
8.75263e-05
0.000111244
0.000169496
5.63901e-05
1.94897e-06
4.85554e-07
1.91699e-07
5.31687e-10
8.75101e-14
7.14797e-16
1.2829e-15
0
0
0
0
0
0
0
0
0
0
0
0
0
0
0
0
0
0
0
0
0
0
0
0
0
0
0
0
0
0
0
0
0
0
0
0
0
0
0
0
0
0
0
0
0
0
0
1.25347e-22
1.85139e-13
4.95791e-22
3.29441e-13
3.09048e-18
4.95429e-17
9.24887e-16
1.85272e-14
2.10778e-11
1.2346e-12
3.4553e-12
5.39511e-12
6.30201e-12
1.04261e-11
4.89531e-11
3.05881e-11
2.90161e-12
8.07869e-12
2.05374e-11
6.6942e-11
5.1451e-10
1.51945e-08
1.79463e-06
1.74237e-06
1.23948e-05
9.55001e-05
4.02957e-05
0.000164968
0.000129832
0.000107086
0.000113751
0.000147163
0.000180301
0.000181428
0.000154524
0.000132153
0.000114038
0.000101802
8.91197e-05
8.09343e-05
7.69138e-05
7.78512e-05
8.66916e-05
0.000111289
0.000166616
7.14717e-05
5.42346e-06
2.36506e-07
1.29128e-08
2.00348e-10
1.25398e-12
5.23558e-14
1.27688e-18
0
0
0
0
0
0
0
0
0
0
0
0
0
0
0
0
0
0
0
0
0
0
0
0
0
0
0
0
0
0
0
0
0
0
0
0
0
0
0
0
0
0
0
0
0
0
0
2.19219e-26
1.69765e-20
1.12387e-18
1.78467e-17
1.19509e-16
4.12806e-16
3.27478e-15
4.96938e-14
9.48961e-13
4.43913e-11
1.20489e-10
1.51115e-10
1.20869e-10
7.15488e-11
6.21714e-12
4.44108e-12
1.01032e-11
8.05713e-11
2.1084e-10
2.89029e-10
1.09785e-09
1.17716e-08
1.44429e-07
5.29154e-07
3.80891e-06
3.24757e-05
8.17801e-05
0.000107212
0.000104725
5.81062e-05
0.000110487
0.00014741
0.000180106
0.000177667
0.000145197
0.000121725
0.000109381
9.58368e-05
8.53053e-05
7.79707e-05
7.37752e-05
7.46575e-05
8.37219e-05
0.000108456
0.000163753
6.63844e-05
1.30612e-06
4.6496e-08
2.24882e-09
2.28177e-11
5.26606e-13
3.29242e-14
2.30735e-20
0
0
0
0
0
0
0
0
0
0
0
0
0
0
0
0
0
0
0
0
0
0
0
0
0
0
0
0
0
0
0
0
0
0
0
0
0
0
0
0
0
0
0
0
0
0
0
3.659e-24
2.99182e-20
1.08033e-12
4.36524e-16
1.01895e-11
4.39749e-15
1.13224e-14
1.10416e-11
1.67176e-12
8.17635e-11
9.99507e-09
4.43279e-09
8.16048e-10
4.65215e-11
1.07619e-11
5.19641e-11
5.0765e-11
4.40921e-10
1.43193e-09
1.91869e-09
8.92336e-09
1.79912e-08
6.99257e-08
6.1638e-07
2.53121e-06
1.23867e-05
5.01087e-05
0.000186002
0.000151896
0.000105571
0.000110223
0.000150587
0.0001787
0.000171251
0.000139245
3.10795e-05
0.000102965
9.21739e-05
8.31806e-05
7.37956e-05
7.03049e-05
7.12807e-05
8.0356e-05
0.00010684
0.000160257
6.6671e-05
9.4046e-07
1.28712e-08
2.35052e-10
4.73438e-12
1.83051e-13
6.73511e-15
0
0
0
0
0
0
0
0
0
0
0
0
0
0
0
0
0
0
0
0
0
0
0
0
0
0
0
0
0
0
0
0
0
0
0
0
0
0
0
0
0
0
0
0
0
0
0
0
1.28706e-22
4.64349e-21
7.82524e-17
7.25133e-12
2.84285e-14
1.14236e-11
2.30608e-14
7.70443e-14
6.03652e-13
9.15661e-12
1.07225e-10
1.18792e-10
4.20745e-11
1.23005e-11
1.05556e-11
3.57384e-11
3.10557e-10
7.33143e-09
2.56128e-08
4.0869e-08
1.93581e-08
4.39189e-08
8.93125e-08
7.93598e-07
5.9746e-06
1.06847e-05
2.72735e-05
5.30088e-05
4.68184e-05
6.66416e-05
9.4666e-05
0.000153834
9.22723e-05
0.000164076
0.000135494
0.000112985
9.81938e-05
8.89718e-05
7.90584e-05
6.9429e-05
6.68353e-05
6.80712e-05
1.73984e-05
0.000103371
0.000156279
7.7931e-05
1.12426e-06
8.3966e-09
7.54708e-11
2.0762e-12
3.78777e-14
1.79965e-16
0
0
0
0
0
0
0
0
0
0
0
0
0
0
0
0
0
0
0
0
0
0
0
0
0
0
0
0
0
0
0
0
0
0
0
0
0
0
0
0
0
0
0
0
0
0
0
0
1.1856e-22
6.50609e-20
1.37584e-17
2.70478e-16
1.97718e-15
6.89827e-15
1.00684e-11
1.80485e-13
7.21042e-13
2.16113e-12
2.6422e-11
3.94368e-11
3.48531e-11
1.02959e-11
2.7077e-11
1.54578e-10
1.02964e-09
1.54279e-08
8.4517e-07
1.70446e-07
2.816e-07
1.06915e-07
3.35633e-07
1.26948e-06
5.01958e-05
2.12882e-05
1.70651e-05
2.63855e-05
3.09373e-05
5.25739e-05
9.90005e-05
0.00014917
0.000168802
0.000156232
0.000130056
0.000110974
9.47997e-05
8.53239e-05
7.58977e-05
1.38516e-05
6.37305e-05
6.51993e-05
7.5694e-05
0.000101326
0.000151556
9.86534e-05
1.59188e-06
1.19456e-08
6.95867e-11
1.17899e-12
2.05026e-15
3.18215e-16
0
0
0
0
0
0
0
0
0
0
0
0
0
0
0
0
0
0
0
0
0
0
0
0
0
0
0
0
0
0
0
0
0
0
0
0
0
0
0
0
0
0
0
0
0
0
0
0
1.76634e-13
2.6286e-13
1.19129e-17
3.01182e-16
1.94087e-15
8.72181e-12
1.48072e-13
2.27904e-12
4.52829e-11
7.32704e-12
6.05369e-12
6.18708e-12
9.81533e-12
4.9079e-11
1.53017e-10
4.09198e-10
5.00426e-09
1.1506e-07
4.07157e-06
1.87671e-06
5.1283e-07
5.13341e-07
9.91714e-07
2.03001e-06
1.16732e-05
9.20672e-06
8.63969e-06
1.26166e-05
2.72402e-05
7.23897e-05
0.000126661
0.000156481
0.000162626
0.000147469
0.000124452
0.000103727
9.09307e-05
8.15739e-05
7.38643e-05
6.46912e-05
6.1355e-05
6.23316e-05
7.46376e-05
0.000101474
0.000145716
0.000124374
2.09961e-06
5.11152e-09
6.61468e-11
1.03642e-15
3.94807e-18
1.8991e-16
0
0
0
0
0
0
0
0
0
0
0
0
0
0
0
0
0
0
0
0
0
0
0
0
0
0
0
0
0
0
0
0
0
0
0
0
0
0
0
0
0
0
0
0
0
0
0
0
2.29404e-13
4.36055e-13
1.0194e-16
4.15206e-15
7.34654e-12
6.88342e-14
2.25234e-11
1.90556e-11
3.50603e-10
6.8304e-11
6.6334e-11
5.02521e-11
5.28676e-11
1.75966e-10
5.63412e-10
1.27619e-09
1.64465e-08
3.22808e-07
2.84802e-05
4.56026e-06
1.93667e-06
2.804e-06
2.15362e-06
4.42129e-06
8.3249e-06
7.30895e-06
7.90467e-06
1.39341e-05
4.60301e-05
0.000117226
9.82308e-05
9.62821e-05
0.000155609
0.000140449
0.000119054
9.77153e-05
8.61688e-05
7.87876e-05
7.30051e-05
6.47762e-05
1.29181e-05
1.30733e-05
7.3429e-05
0.000101067
6.62906e-05
8.10611e-05
2.3048e-06
1.142e-08
4.1504e-11
4.71337e-14
1.55783e-15
9.51313e-17
0
0
0
0
0
0
0
0
0
0
0
0
0
0
0
0
0
0
0
0
0
0
0
0
0
0
0
0
0
0
0
0
0
0
0
0
0
0
0
0
0
0
0
0
0
0
0
0
4.77002e-23
9.00641e-13
4.52852e-12
2.78077e-12
4.06517e-14
1.82021e-11
2.27029e-12
1.89577e-11
1.28453e-10
1.30923e-09
2.70152e-10
5.39814e-10
3.40792e-09
6.07938e-09
2.03342e-08
1.24388e-08
2.12912e-08
4.84995e-07
2.35205e-05
9.85005e-06
6.21444e-06
1.05629e-05
8.67477e-06
1.14715e-05
1.10556e-05
1.02915e-05
1.38401e-05
2.39338e-05
5.77497e-05
6.2482e-05
0.000158919
0.000159963
6.69784e-05
0.000130244
0.000109568
2.01871e-05
8.14752e-05
7.69384e-05
7.32895e-05
6.63998e-05
1.36308e-05
6.05786e-05
7.31342e-05
0.000101811
0.000152655
0.000110308
2.06284e-06
6.10477e-09
2.48808e-11
1.00848e-14
1.73055e-15
1.02583e-16
0
0
0
0
0
0
0
0
0
0
0
0
0
0
0
0
0
0
0
0
0
0
0
0
0
0
0
0
0
0
0
0
0
0
0
0
0
0
0
0
0
0
0
0
0
0
0
0
5.68574e-13
2.25772e-16
6.02833e-15
6.27916e-14
5.53427e-13
4.34697e-11
4.19727e-11
1.49232e-09
1.60112e-09
3.43848e-09
7.624e-09
4.65489e-08
1.82651e-08
3.65653e-08
1.89161e-08
2.23609e-08
5.09091e-08
1.01733e-06
1.28746e-05
2.97919e-05
1.51841e-05
1.76953e-05
2.32137e-05
2.8526e-05
1.91156e-05
2.13871e-05
3.01888e-05
4.60436e-05
8.68392e-05
0.000134196
0.000157903
0.000154955
0.000141273
0.000123979
0.000105091
2.02313e-05
7.85649e-05
1.82829e-05
7.46587e-05
6.91224e-05
6.38053e-05
6.13296e-05
7.29974e-05
0.000101981
0.000156328
9.59487e-05
1.12358e-06
3.25466e-09
1.53495e-11
2.80456e-17
1.14631e-15
1.08297e-16
0
0
0
0
0
0
0
0
0
0
0
0
0
0
0
0
0
0
0
0
0
0
0
0
0
0
0
0
0
0
0
0
0
0
0
0
0
0
0
0
0
0
0
0
0
0
0
0
4.93855e-18
3.90392e-14
1.07426e-12
3.9357e-11
9.68204e-11
2.06604e-09
3.84248e-09
1.07068e-08
4.84132e-07
4.29364e-07
4.32057e-07
4.1907e-07
5.04718e-07
6.34465e-07
2.12427e-07
1.97754e-07
3.32579e-07
1.81736e-06
1.27282e-05
1.81195e-05
2.53986e-05
3.12862e-05
4.73082e-05
6.95851e-05
4.43161e-05
3.94707e-05
5.71681e-05
4.83882e-05
0.000122871
8.65185e-05
0.000156179
0.000149866
0.000132567
2.98888e-05
0.000102082
9.06022e-05
1.88451e-05
7.76687e-05
7.71368e-05
7.24076e-05
6.71883e-05
6.17327e-05
1.75183e-05
0.00010455
0.000159884
5.45348e-05
7.67753e-07
2.12487e-10
9.85474e-12
6.57991e-15
1.5064e-18
1.48845e-16
4.86697e-19
0
0
0
0
0
0
0
0
0
0
0
0
0
0
0
0
0
0
0
0
0
0
0
0
0
0
0
0
0
0
0
0
0
0
0
0
0
0
0
0
0
0
0
0
0
0
0
2.63947e-15
8.26745e-11
1.21971e-09
1.17551e-08
9.08969e-08
2.28198e-07
1.13947e-07
7.48113e-07
2.85652e-05
1.04697e-05
5.54299e-06
4.84e-06
5.32173e-06
2.93095e-06
2.03019e-06
1.39938e-06
2.55692e-06
4.22413e-06
1.45755e-05
2.39728e-05
5.604e-05
5.48297e-05
7.67903e-05
6.05271e-05
6.68572e-05
6.48641e-05
8.20564e-05
6.03512e-05
0.00014082
0.000156296
0.000150878
0.000138061
0.000124834
0.00011042
0.000101739
9.31262e-05
2.10052e-05
2.09454e-05
8.04847e-05
7.59614e-05
7.05221e-05
1.53819e-05
1.82527e-05
0.000108258
0.000162361
3.71308e-05
4.29816e-07
9.43251e-11
6.95605e-12
1.28018e-13
5.76679e-16
1.51713e-16
7.31629e-17
1.4959e-18
0
0
0
0
0
0
0
0
0
0
0
0
0
0
0
0
0
0
0
0
0
0
0
0
0
0
0
0
0
0
0
0
0
0
0
0
0
0
0
0
0
0
0
0
0
0
7.51676e-12
1.52413e-06
1.8378e-06
1.88435e-06
2.8757e-06
1.0174e-05
3.59553e-06
4.56443e-06
1.97655e-05
2.7697e-05
3.21326e-05
2.79111e-05
2.38687e-05
1.80262e-05
1.17949e-05
6.93472e-06
6.82731e-06
1.34114e-05
2.85927e-05
4.11094e-05
7.56006e-05
9.38445e-05
9.72357e-05
0.000103544
5.91534e-05
0.000102013
6.12573e-05
0.000132954
0.000155841
0.000151935
0.00014231
0.000129956
2.86948e-05
0.000108612
0.000103255
9.69351e-05
9.03529e-05
2.39336e-05
8.47492e-05
7.96554e-05
7.40769e-05
6.61299e-05
7.79676e-05
0.000111917
0.000163676
2.78689e-05
2.47923e-07
3.4185e-10
4.51177e-12
9.56142e-14
3.87258e-16
1.56348e-16
1.23761e-16
9.24299e-17
8.96373e-19
0
0
0
0
0
0
0
0
0
0
0
0
0
0
0
0
0
0
0
0
0
0
0
0
0
0
0
0
0
0
0
0
0
0
0
0
0
0
0
0
0
0
0
0
0
4.41389e-08
0.000118318
6.61935e-05
4.41388e-05
3.82715e-05
3.99569e-05
2.12447e-05
2.3849e-05
5.16592e-05
8.9125e-05
5.57071e-05
8.91181e-05
4.74336e-05
5.95487e-05
4.24337e-05
2.48771e-05
1.54364e-05
1.68868e-05
3.66821e-05
6.20888e-05
7.5894e-05
6.81981e-05
0.000111734
0.000119022
0.000126133
5.849e-05
0.000140401
0.000154888
0.00016015
3.96897e-05
3.67953e-05
3.08331e-05
2.79353e-05
2.88907e-05
2.95419e-05
2.91495e-05
0.000101652
9.91266e-05
2.58855e-05
8.47036e-05
2.12527e-05
6.8947e-05
2.12685e-05
4.15587e-05
0.000159241
1.14973e-05
1.26588e-07
1.63987e-10
3.07241e-12
2.26854e-15
3.29623e-16
1.54099e-16
1.32186e-16
1.09627e-16
6.71742e-17
0
0
0
0
0
0
0
0
0
0
0
0
0
0
0
0
0
0
0
0
0
0
0
0
0
0
0
0
0
0
0
0
0
0
0
0
0
0
0
0
0
0
0
0
0
7.81998e-06
8.84798e-05
0.000142338
6.70763e-05
0.000162996
6.75486e-05
5.73181e-05
8.52955e-05
7.59997e-05
0.000169941
0.000163398
6.20036e-05
0.000162301
0.000128856
8.71341e-05
4.88064e-05
3.15095e-05
2.89594e-05
5.6027e-05
6.32279e-05
0.000108922
0.000113059
0.000130575
0.000148426
7.11367e-05
0.000161496
0.000163723
0.000164256
0.000156347
0.000138063
3.8222e-05
0.00012211
0.000113777
0.000111758
0.000110815
3.35644e-05
3.4382e-05
0.000107639
3.01457e-05
2.67411e-05
8.69929e-05
1.9556e-05
2.44297e-05
0.000125147
0.000148259
5.50452e-06
5.09628e-08
7.22325e-11
1.77275e-12
2.02208e-15
2.81069e-16
1.35016e-16
1.19824e-16
1.14264e-16
1.05287e-16
0
0
0
0
0
0
0
0
0
0
0
0
0
0
0
0
0
0
0
0
0
0
0
0
0
0
0
0
0
0
0
0
0
0
0
0
0
0
0
0
0
0
0
0
0
1.12775e-05
3.5034e-05
0.000112415
0.000196834
0.000192095
0.000169896
0.000108003
0.000117279
0.000170219
4.9044e-05
0.000144966
1.97372e-05
5.12483e-05
0.000186286
0.000148552
0.000101019
6.87147e-05
5.62584e-05
9.03611e-05
9.97747e-05
0.000108273
0.000124754
0.000145401
8.3414e-05
9.92817e-05
0.000169187
8.87431e-05
7.39835e-05
6.53552e-05
5.56705e-05
0.000128784
0.000124024
0.000119028
0.000118818
4.0687e-05
4.25938e-05
4.30749e-05
0.000118145
0.000112851
3.04726e-05
2.69881e-05
8.62402e-05
2.94217e-05
0.000137062
7.69972e-05
2.46264e-06
1.21692e-08
3.32175e-11
8.89649e-13
1.68486e-15
1.83135e-16
5.69793e-18
3.58734e-19
1.31499e-18
6.95675e-20
0
0
0
0
0
0
0
0
0
0
0
0
0
0
0
0
0
0
0
0
0
0
0
0
0
0
0
0
0
0
0
0
0
0
0
0
0
0
0
0
0
0
0
0
0
4.70735e-05
4.1159e-05
7.42166e-05
0.000154545
0.00019699
9.64185e-05
0.000125885
0.000124939
0.000180004
0.000183499
0.000140007
2.66374e-05
3.26832e-05
6.7619e-05
0.000184436
0.000141641
6.78708e-05
9.16444e-05
6.60063e-05
0.000108577
0.00011741
7.7554e-05
0.000147818
0.00016373
0.000170668
0.000171543
0.00017031
0.000166375
0.000159013
0.000146294
0.000133382
4.27038e-05
4.23505e-05
0.000123196
4.81546e-05
0.000125375
0.000125205
0.000122191
0.000118279
0.000113335
3.03705e-05
2.80535e-05
0.000114416
0.000142014
6.5359e-05
1.06724e-06
6.65643e-09
1.55356e-11
3.41308e-13
5.53704e-16
4.21139e-18
0
0
0
0
0
0
0
0
0
0
0
0
0
0
0
0
0
0
0
0
0
0
0
0
0
0
0
0
0
0
0
0
0
0
0
0
0
0
0
0
0
0
0
0
0
0
0
0
0
5.31153e-05
5.07137e-05
6.21196e-05
8.71592e-05
0.000144751
0.000127131
9.0794e-05
9.81464e-05
0.000149497
0.0001722
0.000164475
0.000154466
8.73946e-05
9.69344e-05
0.000142272
0.000130931
0.000122161
0.000120619
0.000129165
0.000127541
0.00013712
0.000145749
0.000149413
0.000158382
0.00016932
0.000111246
0.000173078
0.000106317
0.000163618
0.000150553
6.77962e-05
5.9674e-05
0.000127005
5.28322e-05
6.2563e-05
0.000127754
0.000128867
0.000131185
5.30132e-05
0.000118502
3.69963e-05
0.000107842
0.000124378
6.42848e-05
4.62524e-05
4.2632e-07
1.69526e-09
7.48994e-12
2.15888e-13
3.18437e-16
3.55936e-27
0
0
0
0
0
0
0
0
0
0
0
0
0
0
0
0
0
0
0
0
0
0
0
0
0
0
0
0
0
0
0
0
0
0
0
0
0
0
0
0
0
0
0
0
0
0
0
0
0
4.9008e-05
5.307e-05
6.66366e-05
7.05277e-05
7.08233e-05
6.62231e-05
5.73553e-05
6.84856e-05
9.99316e-05
0.000114633
0.000111269
9.95251e-05
8.29185e-05
7.22975e-05
8.15571e-05
9.2563e-05
0.000124275
0.000142172
0.000143542
8.58474e-05
0.000148973
8.37367e-05
0.000148117
0.000153461
0.000162647
0.000172852
0.000174149
0.000171208
0.000162943
9.57067e-05
8.18664e-05
0.000132905
6.89456e-05
6.76068e-05
0.000125972
0.000126972
8.3877e-05
0.000132123
7.70642e-05
0.000123196
0.000117121
4.20807e-05
0.000132232
0.000143157
2.74814e-05
1.69247e-07
2.74815e-10
3.76302e-12
5.03298e-14
2.62613e-16
4.35192e-19
0
0
0
0
0
0
0
0
0
0
0
0
0
0
0
0
0
0
0
0
0
0
0
0
0
0
0
0
0
0
0
0
0
0
0
0
0
0
0
0
0
0
0
0
0
0
0
0
0
4.72808e-05
5.05993e-05
5.63119e-05
6.43783e-05
6.71051e-05
5.92687e-05
5.5094e-05
5.73559e-05
6.07883e-05
5.56284e-05
4.55742e-05
3.67997e-05
2.9971e-05
2.78634e-05
3.26214e-05
4.79848e-05
8.12859e-05
7.49103e-05
0.000132783
0.000159123
8.99315e-05
0.000149381
0.000152485
0.000156358
0.00016054
0.000165758
8.6578e-05
0.000166619
0.000157623
8.93095e-05
0.000135918
0.000129904
0.0001249
0.000122866
0.000122813
0.000124753
0.00012949
0.000134569
9.91124e-05
7.53712e-05
0.000122892
0.000124499
0.000137608
6.42749e-05
1.52897e-05
6.79335e-08
1.13234e-10
1.8811e-12
2.10624e-15
2.9489e-16
1.0164e-16
1.56148e-27
0
0
0
0
0
0
0
0
0
0
0
0
0
0
0
0
0
0
0
0
0
0
0
0
0
0
0
0
0
0
0
0
0
0
0
0
0
0
0
0
0
0
0
0
0
0
0
0
4.80641e-05
5.18409e-05
5.20499e-05
5.433e-05
6.0812e-05
6.31658e-05
6.10257e-05
5.71924e-05
4.82247e-05
3.59792e-05
2.63888e-05
2.04308e-05
1.58664e-05
1.45454e-05
1.64589e-05
2.34366e-05
4.24177e-05
6.9378e-05
0.000102046
8.57873e-05
8.71495e-05
0.000139353
0.000151708
8.58617e-05
8.43316e-05
0.000162871
0.000161689
0.000155649
0.000147944
7.16906e-05
6.71181e-05
0.000121903
0.000117294
0.000115597
7.36816e-05
0.000119649
0.000128642
0.000104852
0.000107009
0.000135317
0.00013287
0.000131249
0.000139513
0.000114358
8.47729e-06
2.94403e-08
4.76147e-11
8.95667e-13
1.79404e-15
4.18875e-16
1.24412e-16
8.30922e-17
0
0
0
0
0
0
0
0
0
0
0
0
0
0
0
0
0
0
0
0
0
0
0
0
0
0
0
0
0
0
0
0
0
0
0
0
0
0
0
0
0
0
0
0
0
0
0
0
5.04209e-05
5.55602e-05
5.63339e-05
5.39179e-05
5.3126e-05
5.42035e-05
4.98148e-05
4.12709e-05
2.97241e-05
2.21909e-05
1.58202e-05
1.10529e-05
8.70101e-06
7.75151e-06
9.04277e-06
1.30101e-05
2.15939e-05
4.22277e-05
6.97216e-05
9.74843e-05
0.000117109
0.000131654
0.000146792
0.000157925
0.00015908
0.000158537
8.06885e-05
0.0001436
0.000132376
0.000123646
0.000116263
5.62232e-05
5.45753e-05
0.000109446
0.00011146
0.000116006
0.00012466
0.000135192
0.000139722
0.000138225
0.0001344
0.0001359
0.000135877
9.0383e-05
3.27617e-06
1.26657e-08
2.16565e-11
2.91973e-13
1.4178e-15
2.48585e-16
1.22063e-16
8.72826e-17
0
0
0
0
0
0
0
0
0
0
0
0
0
0
0
0
0
0
0
0
0
0
0
0
0
0
0
0
0
0
0
0
0
0
0
0
0
0
0
0
0
0
0
0
0
0
0
0
5.41002e-05
6.1292e-05
6.27715e-05
5.86146e-05
5.14906e-05
4.12491e-05
3.13611e-05
2.02277e-05
1.62669e-05
1.04072e-05
7.4764e-06
5.5628e-06
4.51342e-06
4.16104e-06
4.6045e-06
7.21658e-06
1.26494e-05
2.36478e-05
4.69469e-05
7.53867e-05
7.66249e-05
0.000128124
0.000143797
0.000150706
0.000152361
0.000149725
0.000141031
0.00012835
0.000117506
0.000110132
0.000104805
5.77023e-05
0.000102137
0.000102506
0.000105678
0.00011195
0.000102854
0.000130517
0.000140574
0.000140339
0.000137382
7.73025e-05
0.000125939
6.26432e-05
1.16191e-06
5.24271e-09
1.10208e-11
9.56692e-14
7.3741e-16
1.84173e-16
1.18079e-16
1.70771e-17
0
0
0
0
0
0
0
0
0
0
0
0
0
0
0
0
0
0
0
0
0
0
0
0
0
0
0
0
0
0
0
0
0
0
0
0
0
0
0
0
0
0
0
0
0
0
0
0
5.91355e-05
6.72411e-05
6.72092e-05
5.85381e-05
4.39345e-05
2.84125e-05
1.84978e-05
1.25418e-05
7.51249e-06
4.93636e-06
3.21426e-06
2.40732e-06
2.05041e-06
1.99548e-06
2.31165e-06
3.69133e-06
7.56648e-06
1.51019e-05
3.14805e-05
5.58544e-05
8.53282e-05
0.000115358
0.000138959
0.000141416
0.000140004
8.09241e-05
7.63513e-05
0.000111973
0.000102807
9.6475e-05
9.34547e-05
9.34856e-05
9.41658e-05
9.6216e-05
0.000100207
0.000108004
0.00011895
0.000128707
0.000135745
0.000141424
0.000139325
0.000139303
0.000109944
2.67376e-05
3.8679e-07
1.86191e-09
5.99787e-12
3.62052e-15
4.50721e-16
1.51216e-16
6.40882e-17
0
0
0
0
0
0
0
0
0
0
0
0
0
0
0
0
0
0
0
0
0
0
0
0
0
0
0
0
0
0
0
0
0
0
0
0
0
0
0
0
0
0
0
0
0
0
0
0
0
6.50149e-05
6.91487e-05
6.2712e-05
5.03029e-05
3.40209e-05
2.19018e-05
1.17104e-05
7.05263e-06
3.82159e-06
2.02351e-06
1.26662e-06
9.37635e-07
8.18553e-07
8.52272e-07
1.06464e-06
1.86462e-06
4.27993e-06
9.82065e-06
2.05861e-05
4.16968e-05
6.42609e-05
9.26329e-05
8.42063e-05
0.000122249
0.000121078
0.000112306
0.000103798
9.61746e-05
8.82301e-05
8.33173e-05
8.25049e-05
8.38251e-05
8.62832e-05
7.26253e-05
8.53273e-05
0.000103782
0.000115357
0.000126533
0.000134743
0.000141315
0.000139826
0.000134944
9.01361e-05
1.9513e-05
1.31347e-07
3.19452e-10
3.38306e-12
2.32555e-15
3.24386e-16
1.26239e-16
4.76344e-17
0
0
0
0
0
0
0
0
0
0
0
0
0
0
0
0
0
0
0
0
0
0
0
0
0
0
0
0
0
0
0
0
0
0
0
0
0
0
0
0
0
0
0
0
0
0
0
0
0
6.90711e-05
6.05351e-05
4.76055e-05
4.056e-05
2.78338e-05
1.47682e-05
7.85384e-06
3.71548e-06
1.66282e-06
8.21069e-07
5.00367e-07
3.51717e-07
2.83091e-07
3.38802e-07
5.40721e-07
9.9976e-07
2.33777e-06
6.07255e-06
1.3958e-05
3.02209e-05
4.97746e-05
7.00909e-05
8.9287e-05
9.87408e-05
7.48939e-05
9.16518e-05
8.46234e-05
6.25236e-05
7.45485e-05
7.10044e-05
7.19772e-05
7.45223e-05
7.83584e-05
8.31193e-05
8.78185e-05
9.91942e-05
0.000111324
0.000124012
0.000133007
0.00013628
0.000136022
0.000126759
6.65756e-05
6.85586e-06
5.45882e-08
8.33032e-11
1.77405e-12
1.49444e-15
2.46808e-16
9.28079e-17
1.9895e-29
0
0
0
0
0
0
0
0
0
0
0
0
0
0
0
0
0
0
0
0
0
0
0
0
0
0
0
0
0
0
0
0
0
0
0
0
0
0
0
0
0
0
0
0
0
0
0
0
0
6.32003e-05
4.33692e-05
3.64432e-05
2.79182e-05
1.78785e-05
9.02323e-06
4.2251e-06
1.9531e-06
7.3113e-07
3.61817e-07
2.14302e-07
1.31788e-07
1.09028e-07
1.70141e-07
3.0352e-07
5.84044e-07
1.32453e-06
3.55901e-06
9.07731e-06
2.03366e-05
2.67103e-05
5.29386e-05
6.63701e-05
7.65811e-05
6.07887e-05
7.33143e-05
6.74983e-05
6.6111e-05
6.14097e-05
5.96039e-05
6.20018e-05
6.54231e-05
7.03778e-05
7.56412e-05
8.18249e-05
9.43873e-05
0.000107189
0.000121105
0.00013039
0.000133323
6.76916e-05
0.000112386
4.34807e-05
3.78063e-06
2.12612e-08
3.57258e-11
8.48021e-13
9.49092e-16
1.85576e-16
7.64049e-17
0
0
0
0
0
0
0
0
0
0
0
0
0
0
0
0
0
0
0
0
0
0
0
0
0
0
0
0
0
0
0
0
0
0
0
0
0
0
0
0
0
0
0
0
0
0
0
0
0
0
4.33384e-05
2.41634e-05
1.81665e-05
1.3368e-05
8.55279e-06
4.86935e-06
2.43693e-06
1.05445e-06
3.6857e-07
1.72802e-07
1.04458e-07
5.15172e-08
5.63454e-08
9.25889e-08
1.77359e-07
3.61454e-07
7.99989e-07
2.04534e-06
5.54854e-06
1.29646e-05
2.57951e-05
3.88702e-05
4.8857e-05
5.69364e-05
5.95895e-05
5.72646e-05
4.38827e-05
5.20908e-05
4.97226e-05
4.91864e-05
5.2852e-05
5.66215e-05
6.25399e-05
6.92352e-05
7.67076e-05
8.90439e-05
0.000103181
0.000118025
0.00012662
0.000128943
0.000122851
9.61484e-05
2.48598e-05
1.27653e-06
7.3053e-09
1.54972e-11
3.29073e-13
5.93788e-16
1.45402e-16
2.94398e-17
0
0
0
0
0
0
0
0
0
0
0
0
0
0
0
0
0
0
0
0
0
0
0
0
0
0
0
0
0
0
0
0
0
0
0
0
0
0
0
0
0
0
0
0
0
0
0
0
0
0
2.52644e-05
7.72725e-06
5.42456e-06
4.632e-06
3.41672e-06
2.07919e-06
1.10454e-06
5.16205e-07
1.68331e-07
9.42833e-08
5.86849e-08
2.41711e-08
3.29235e-08
5.4454e-08
1.07058e-07
2.30256e-07
5.06167e-07
1.22291e-06
3.23444e-06
7.72721e-06
1.51697e-05
2.51262e-05
3.37376e-05
4.04808e-05
4.45152e-05
3.28952e-05
3.31184e-05
4.0371e-05
3.92178e-05
3.98076e-05
3.28973e-05
4.84448e-05
5.4715e-05
6.28262e-05
7.09496e-05
8.36768e-05
9.94962e-05
0.000114741
0.000121183
0.000121325
0.00010923
7.38987e-05
1.17307e-05
5.2738e-07
1.92927e-09
7.23284e-12
4.85066e-14
4.25483e-16
1.04303e-16
1.08276e-18
2.43342e-20
0
0
0
0
0
0
0
0
0
0
0
0
0
0
0
0
0
0
0
0
0
0
0
0
0
0
0
0
0
0
0
0
0
0
0
0
0
0
0
0
0
0
0
0
0
0
0
0
0
4.56764e-07
4.30477e-07
4.57219e-07
5.12262e-07
5.16446e-07
4.34867e-07
3.0185e-07
1.65003e-07
6.01833e-08
4.7395e-08
3.27458e-08
1.35615e-08
1.93488e-08
3.13866e-08
6.0275e-08
1.2886e-07
2.78739e-07
6.06601e-07
1.38282e-06
3.07865e-06
6.02264e-06
1.08194e-05
1.64652e-05
2.16995e-05
2.53162e-05
2.57705e-05
2.52729e-05
2.50788e-05
2.52149e-05
2.6754e-05
3.07849e-05
3.7161e-05
4.27357e-05
4.97577e-05
6.0143e-05
7.44285e-05
9.30776e-05
0.000107248
0.000111023
0.000106085
8.5992e-05
3.83896e-05
3.13409e-06
4.37044e-08
8.23403e-11
1.80341e-12
1.3632e-15
2.05023e-16
1.866e-20
0
0
0
0
0
0
0
0
0
0
0
0
0
0
0
0
0
0
0
0
0
0
0
0
0
0
0
0
0
0
0
0
0
0
0
0
0
0
0
0
0
0
0
0
0
0
0
0
0
0
0
3.29117e-08
2.99448e-08
2.97353e-08
3.15144e-08
4.44144e-08
5.76893e-08
5.59097e-08
3.60004e-08
2.59731e-08
2.51775e-08
2.14393e-08
1.32059e-08
1.10508e-08
1.82423e-08
3.31804e-08
6.64242e-08
1.37449e-07
2.73157e-07
5.29743e-07
1.0119e-06
1.85567e-06
3.4693e-06
5.74209e-06
8.17595e-06
1.03385e-05
1.14529e-05
1.20668e-05
1.25802e-05
1.33405e-05
1.49191e-05
1.79714e-05
2.27118e-05
2.66141e-05
3.51504e-05
4.54979e-05
6.25435e-05
8.25284e-05
9.30997e-05
9.19793e-05
7.91744e-05
5.00013e-05
8.54046e-06
5.74984e-07
5.2903e-09
1.29934e-11
3.92343e-13
5.02041e-16
9.27274e-18
0
0
0
0
0
0
0
0
0
0
0
0
0
0
0
0
0
0
0
0
0
0
0
0
0
0
0
0
0
0
0
0
0
0
0
0
0
0
0
0
0
0
0
0
0
0
0
0
0
0
0
0
2.43739e-09
3.81203e-09
2.70286e-09
3.09736e-09
4.78182e-09
8.74677e-09
1.27764e-08
1.18056e-08
1.42146e-08
1.56731e-08
1.49455e-08
1.12206e-08
6.52649e-09
1.07956e-08
1.90612e-08
3.54181e-08
6.73178e-08
1.24237e-07
2.1459e-07
3.57886e-07
5.59156e-07
9.27189e-07
1.56759e-06
2.43915e-06
3.26356e-06
3.81814e-06
4.19265e-06
4.64536e-06
5.57029e-06
7.0615e-06
9.62165e-06
1.24221e-05
1.7205e-05
2.42305e-05
3.42837e-05
5.18287e-05
6.8089e-05
7.40541e-05
6.58818e-05
4.67314e-05
1.87561e-05
1.72118e-06
6.48905e-08
1.3323e-10
2.73161e-12
2.75833e-14
2.47016e-16
4.5751e-28
0
0
0
0
0
0
0
0
0
0
0
0
0
0
0
0
0
0
0
0
0
0
0
0
0
0
0
0
0
0
0
0
0
0
0
0
0
0
0
0
0
0
0
0
0
0
0
0
0
0
0
0
2.99563e-10
7.72211e-10
1.02409e-09
1.53993e-09
3.52861e-09
7.03577e-09
1.00687e-08
9.08662e-09
9.44469e-09
1.05548e-08
9.99215e-09
7.33955e-09
4.00444e-09
6.21771e-09
1.07979e-08
1.88706e-08
3.31312e-08
5.59787e-08
8.86535e-08
1.31937e-07
1.87798e-07
2.67587e-07
3.76837e-07
5.5274e-07
7.95674e-07
1.12384e-06
1.4212e-06
1.81526e-06
2.44857e-06
3.43586e-06
5.19536e-06
7.40861e-06
1.15253e-05
1.75518e-05
2.71431e-05
4.23023e-05
5.1929e-05
5.12287e-05
3.83188e-05
1.78438e-05
3.17413e-06
2.28495e-07
6.91777e-09
1.65955e-11
5.13627e-13
6.7115e-16
9.71472e-17
0
0
0
0
0
0
0
0
0
0
0
0
0
0
0
0
0
0
0
0
0
0
0
0
0
0
0
0
0
0
0
0
0
0
0
0
0
0
0
0
0
0
0
0
0
0
0
0
0
0
0
0
0
0
3.65352e-10
1.24327e-09
3.16779e-09
6.30595e-09
1.02504e-08
1.33809e-08
1.26939e-08
7.11095e-09
7.39147e-09
6.1588e-09
3.10336e-09
2.44655e-09
3.64481e-09
5.89814e-09
1.00098e-08
1.64535e-08
2.60756e-08
3.91881e-08
5.54669e-08
7.55588e-08
1.00498e-07
1.3493e-07
1.90924e-07
2.72453e-07
3.84545e-07
5.15583e-07
7.04322e-07
1.07029e-06
1.74755e-06
3.07037e-06
4.90792e-06
8.42897e-06
1.3713e-05
2.22514e-05
3.19001e-05
3.52118e-05
2.89103e-05
1.55856e-05
3.10444e-06
2.56928e-07
2.45325e-08
1.06194e-10
2.4493e-12
2.62749e-14
2.73687e-16
4.48439e-20
0
0
0
0
0
0
0
0
0
0
0
0
0
0
0
0
0
0
0
0
0
0
0
0
0
0
0
0
0
0
0
0
0
0
0
0
0
0
0
0
0
0
0
0
0
0
0
0
0
0
0
0
0
0
3.57142e-10
2.51803e-09
6.46181e-09
1.17642e-08
1.53125e-08
1.47709e-08
1.44307e-08
6.72214e-09
5.07593e-09
3.18821e-09
1.2625e-09
1.85891e-09
2.71434e-09
4.04152e-09
6.30367e-09
9.50355e-09
1.39654e-08
1.98795e-08
2.66989e-08
3.46358e-08
4.34974e-08
5.39883e-08
6.91314e-08
8.88386e-08
1.16081e-07
1.41636e-07
2.27354e-07
4.68114e-07
1.05516e-06
2.22744e-06
3.85377e-06
6.95195e-06
1.12688e-05
1.7352e-05
2.20723e-05
1.87698e-05
1.09635e-05
4.00671e-06
2.35113e-07
2.37685e-08
3.39554e-10
8.20291e-12
2.45315e-13
5.03146e-16
9.99751e-18
0
0
0
0
0
0
0
0
0
0
0
0
0
0
0
0
0
0
0
0
0
0
0
0
0
0
0
0
0
0
0
0
0
0
0
0
0
0
0
0
0
0
0
0
0
0
0
0
0
0
0
0
0
0
0
1.20511e-10
3.09161e-09
7.49132e-09
1.34499e-08
1.67928e-08
1.73554e-08
1.15709e-08
6.15319e-09
3.15981e-09
1.26493e-09
1.07489e-09
1.40991e-09
1.79741e-09
2.30367e-09
3.06941e-09
4.20967e-09
5.88373e-09
8.40444e-09
1.16862e-08
1.53075e-08
1.86165e-08
2.05e-08
1.95826e-08
1.46464e-08
1.99859e-08
3.51996e-08
8.30386e-08
3.04367e-07
8.90549e-07
1.92208e-06
3.23052e-06
5.11825e-06
7.64902e-06
1.10344e-05
1.19435e-05
6.91168e-06
2.14176e-06
4.84983e-07
2.09241e-08
4.02575e-10
1.92515e-11
6.87563e-13
1.06059e-15
2.19732e-16
0
0
0
0
0
0
0
0
0
0
0
0
0
0
0
0
0
0
0
0
0
0
0
0
0
0
0
0
0
0
0
0
0
0
0
0
0
0
0
0
0
0
0
0
0
0
0
0
0
0
0
0
0
0
0
0
0
1.18228e-09
3.1011e-09
6.71037e-09
1.01543e-08
1.03938e-08
6.76914e-09
3.33346e-09
1.76664e-09
5.62233e-10
7.26367e-10
7.52848e-10
6.47122e-10
3.52775e-10
5.98013e-10
1.32563e-09
2.64568e-09
4.7119e-09
7.38882e-09
1.04302e-08
1.29067e-08
1.395e-08
1.28208e-08
1.16479e-08
1.58888e-08
2.9512e-08
6.11503e-08
3.68324e-07
9.30062e-07
1.52581e-06
2.03415e-06
2.92775e-06
4.25442e-06
5.49638e-06
4.62909e-06
1.4592e-06
1.46059e-07
4.748e-08
4.10475e-10
2.24897e-11
1.11872e-12
2.17258e-15
3.83294e-16
7.37603e-17
0
0
0
0
0
0
0
0
0
0
0
0
0
0
0
0
0
0
0
0
0
0
0
0
0
0
0
0
0
0
0
0
0
0
0
0
0
0
0
0
0
0
0
0
0
0
0
0
0
0
0
0
0
0
0
0
0
0
1.40027e-09
2.79246e-09
2.95751e-09
4.57323e-09
5.38506e-09
1.70753e-09
6.687e-10
3.12727e-10
3.33479e-10
1.31735e-10
6.67003e-11
1.8939e-10
4.77189e-10
1.08822e-09
2.26223e-09
4.11801e-09
6.70341e-09
9.54429e-09
1.19703e-08
1.27458e-08
1.12552e-08
9.64651e-09
1.29542e-08
2.61601e-08
1.58549e-07
4.49439e-07
7.6819e-07
9.06012e-07
1.03921e-06
1.36026e-06
1.67745e-06
1.92304e-06
1.08885e-06
1.51052e-07
1.79699e-08
1.89308e-09
2.86188e-11
1.28539e-12
3.39384e-15
5.13677e-16
1.6829e-16
0
0
0
0
0
0
0
0
0
0
0
0
0
0
0
0
0
0
0
0
0
0
0
0
0
0
0
0
0
0
0
0
0
0
0
0
0
0
0
0
0
0
0
0
0
0
0
0
0
0
0
0
0
0
0
0
0
0
0
3.86942e-10
8.59062e-10
2.10896e-09
3.26551e-09
3.58431e-09
9.9643e-10
1.81244e-10
1.30493e-10
7.07632e-11
1.57772e-11
4.39693e-11
1.36518e-10
3.67388e-10
8.9895e-10
1.94434e-09
3.69501e-09
6.24659e-09
9.05166e-09
1.14424e-08
1.20278e-08
1.03815e-08
8.28796e-09
1.81007e-08
9.12247e-08
2.63103e-07
3.92095e-07
4.26573e-07
3.71142e-07
3.74666e-07
3.47225e-07
3.73065e-07
3.71349e-07
1.77497e-07
2.62801e-08
5.08224e-10
5.91863e-11
1.95008e-12
4.23421e-15
6.67124e-16
1.93131e-16
1.73896e-20
0
0
0
0
0
0
0
0
0
0
0
0
0
0
0
0
0
0
0
0
0
0
0
0
0
0
0
0
0
0
0
0
0
0
0
0
0
0
0
0
0
0
0
0
0
0
0
0
0
0
0
0
0
0
0
0
0
0
0
0
3.16613e-10
8.52215e-10
2.17435e-09
2.74225e-09
6.3404e-10
2.10332e-11
3.7444e-11
3.21048e-12
9.30167e-12
2.78936e-11
9.43727e-11
2.74846e-10
7.11621e-10
1.62689e-09
3.29539e-09
5.69098e-09
8.53294e-09
1.08233e-08
1.15706e-08
1.27169e-08
2.55346e-08
5.86271e-08
1.16805e-07
1.84644e-07
2.03357e-07
1.63924e-07
1.20035e-07
8.4162e-08
5.70342e-08
6.7329e-08
6.14852e-08
3.65428e-08
2.6696e-09
4.44392e-11
3.30195e-12
6.01118e-15
7.96717e-16
2.34289e-16
6.94209e-20
0
0
0
0
0
0
0
0
0
0
0
0
0
0
0
0
0
0
0
0
0
0
0
0
0
0
0
0
0
0
0
0
0
0
0
0
0
0
0
0
0
0
0
0
0
0
0
0
0
0
0
0
0
0
0
0
0
0
0
0
0
0
4.0023e-10
9.89144e-10
1.73352e-09
4.37016e-10
1.31334e-11
4.72756e-12
1.49655e-12
5.19248e-12
1.69845e-11
6.02671e-11
1.91405e-10
5.27487e-10
1.30236e-09
2.72908e-09
4.91652e-09
7.5297e-09
9.89309e-09
1.42811e-08
2.30934e-08
3.84938e-08
6.19595e-08
8.70693e-08
9.55233e-08
8.01013e-08
5.73e-08
4.29481e-08
3.42134e-08
1.51306e-08
1.14334e-08
1.10029e-08
4.38362e-09
8.53642e-11
4.13958e-12
9.86942e-14
1.06298e-15
3.10725e-16
9.54776e-18
0
0
0
0
0
0
0
0
0
0
0
0
0
0
0
0
0
0
0
0
0
0
0
0
0
0
0
0
0
0
0
0
0
0
0
0
0
0
0
0
0
0
0
0
0
0
0
0
0
0
0
0
0
0
0
0
0
0
0
0
0
0
0
0
0
9.45088e-10
2.99285e-10
7.13277e-12
1.47017e-13
5.66078e-13
2.60108e-12
9.51011e-12
3.46416e-11
1.22134e-10
3.60507e-10
9.26666e-10
2.07003e-09
3.83237e-09
6.10022e-09
1.04349e-08