/*--------------------------------*- C++ -*----------------------------------*\
  =========                 |
  \\      /  F ield         | OpenFOAM: The Open Source CFD Toolbox
   \\    /   O peration     | Website:  https://openfoam.org
    \\  /    A nd           | Version:  6
     \\/     M anipulation  |
\*---------------------------------------------------------------------------*/
FoamFile
{
    version     2.0;
    format      ascii;
    class       volScalarField;
    location    "0.005";
    object      C2H4;
}
// * * * * * * * * * * * * * * * * * * * * * * * * * * * * * * * * * * * * * //

dimensions      [0 0 0 0 0 0 0];

internalField   nonuniform List<scalar> 
8000
(
1.42146e-09
2.43324e-09
2.90849e-09
4.499e-09
1.2237e-08
9.66186e-08
7.88888e-07
2.79732e-06
4.99405e-06
6.93152e-06
8.75296e-06
1.04615e-05
1.21319e-05
1.33351e-05
1.34886e-05
1.34301e-05
1.46491e-05
1.7898e-05
2.31466e-05
3.6346e-05
7.7401e-05
0.000165502
0.00025524
0.000287342
0.000672166
0.00316491
0.00613386
0.00640992
0.00505107
0.00383452
0.00373548
0.00509057
0.00838917
0.0126974
0.0176058
0.0207575
0.0234711
0.0245829
0.0259035
0.0262905
0.0270143
0.0269095
0.0258723
0.0235094
0.0135596
0.000913669
0.000107079
0.000127941
0.000146301
5.30612e-05
7.24121e-06
6.76899e-07
2.74803e-08
0
0
0
0
0
0
0
0
0
0
0
0
0
0
0
0
0
0
0
0
0
0
0
0
0
0
0
0
0
0
0
0
0
0
0
0
0
0
0
0
0
0
0
0
0
0
0
2.6445e-09
5.70053e-09
5.36163e-09
7.5135e-09
2.17844e-08
1.98585e-07
1.59424e-06
4.72077e-06
7.87666e-06
1.08361e-05
1.32881e-05
1.50804e-05
1.67382e-05
1.84426e-05
1.82561e-05
1.70323e-05
1.75495e-05
2.05867e-05
2.55113e-05
3.86353e-05
8.17739e-05
0.000195087
0.00399788
0.000389362
0.00081495
0.00431603
0.00933248
0.00839145
0.00544224
0.00373973
0.00354921
0.00493344
0.00836286
0.0128702
0.017948
0.020947
0.0236439
0.0245278
0.0259748
0.0268504
0.0273194
0.0269588
0.0259292
0.0235936
0.0138609
0.00118157
0.000125953
0.000130596
0.000247245
0.000115009
2.05677e-05
1.1128e-06
2.53451e-08
0
0
0
0
0
0
0
0
0
0
0
0
0
0
0
0
0
0
0
0
0
0
0
0
0
0
0
0
0
0
0
0
0
0
0
0
0
0
0
0
0
0
0
0
0
0
0
1.91712e-09
1.29237e-06
7.35781e-09
3.02817e-06
7.42133e-08
6.16262e-07
3.35056e-06
8.11138e-06
2.04212e-05
1.92478e-05
2.24923e-05
2.42856e-05
2.53455e-05
2.86212e-05
5.30529e-05
4.14579e-05
2.29381e-05
2.71778e-05
3.26889e-05
4.41004e-05
7.62099e-05
0.00015148
0.000252524
0.000273967
0.000491069
0.00360533
0.0100989
0.0103077
0.00502516
0.00314528
0.00309057
0.00468187
0.00843078
0.0133021
0.0187057
0.022167
0.023866
0.0247277
0.0259897
0.0269624
0.0274117
0.027319
0.0259249
0.0236309
0.0150583
0.00155982
0.000731684
0.000119499
0.000164943
6.55816e-05
9.2965e-06
6.35923e-07
2.12214e-08
0
0
0
0
0
0
0
0
0
0
0
0
0
0
0
0
0
0
0
0
0
0
0
0
0
0
0
0
0
0
0
0
0
0
0
0
0
0
0
0
0
0
0
0
0
0
0
2.43442e-09
7.05849e-09
3.72356e-08
2.39568e-07
9.16323e-07
2.11241e-06
5.20013e-06
1.07377e-05
1.94064e-05
5.2067e-05
4.6976e-05
4.9775e-05
4.88578e-05
6.36836e-05
2.6683e-05
2.50661e-05
2.86263e-05
4.49623e-05
8.70799e-05
5.96139e-05
8.42184e-05
0.000182237
0.000212142
0.000241381
0.000301387
0.000997331
0.00305347
0.00388133
0.00326147
0.00207223
0.00288315
0.00476127
0.00884331
0.0139952
0.019826
0.0231053
0.0242038
0.025601
0.0261561
0.0273608
0.0275115
0.0274403
0.0260768
0.023862
0.015649
0.00147208
0.000110978
7.53549e-05
6.86264e-05
2.58238e-05
3.08831e-06
2.72508e-07
5.4201e-15
0
0
0
0
0
0
0
0
0
0
0
0
0
0
0
0
0
0
0
0
0
0
0
0
0
0
0
0
0
0
0
0
0
0
0
0
0
0
0
0
0
0
0
0
0
0
0
2.86235e-09
9.90762e-09
5.77192e-06
1.81896e-06
1.13963e-05
5.27364e-06
7.21497e-06
1.25113e-05
2.18011e-05
6.71684e-05
0.000323032
0.000259432
0.000158001
4.23894e-05
3.02283e-05
5.47354e-05
4.06164e-05
0.000106298
8.04104e-05
8.78395e-05
0.000147645
0.000189612
0.000196091
0.000479942
0.000594144
0.000422162
0.00127078
0.0104316
0.00552144
0.00283625
0.00292997
0.00527561
0.00964252
0.0155291
0.0208546
0.0111438
0.02512
0.0257585
0.0271072
0.0274896
0.0276115
0.0275546
0.0268228
0.0240035
0.0162898
0.00153755
9.3394e-05
5.34668e-05
3.30561e-05
1.04202e-05
1.39598e-06
9.82179e-08
0
0
0
0
0
0
0
0
0
0
0
0
0
0
0
0
0
0
0
0
0
0
0
0
0
0
0
0
0
0
0
0
0
0
0
0
0
0
0
0
0
0
0
0
0
0
0
0
2.77249e-09
8.1696e-09
7.85871e-07
7.58567e-06
9.70676e-06
1.09209e-05
8.9408e-06
1.19243e-05
1.81399e-05
2.8465e-05
4.79688e-05
4.93434e-05
3.91902e-05
3.06296e-05
2.99893e-05
3.86027e-05
6.41647e-05
0.000152517
0.000142333
0.000215519
0.000147341
0.000231032
0.000205367
0.000510636
0.000642632
0.000391815
0.000682504
0.00256916
0.00174203
0.00168407
0.00259218
0.00620601
0.0065621
0.0164345
0.0216572
0.0238883
0.0253797
0.0264626
0.0272432
0.0276076
0.0276986
0.0276507
0.0115218
0.0242637
0.0170183
0.0019653
0.00010356
5.23575e-05
2.35146e-05
7.45486e-06
1.86789e-06
4.32273e-07
2.64947e-08
0
0
0
0
0
0
0
0
0
0
0
0
0
0
0
0
0
0
0
0
0
0
0
0
0
0
0
0
0
0
0
0
0
0
0
0
0
0
0
0
0
0
0
0
0
0
0
3.65012e-09
1.01797e-08
2.12103e-07
1.65795e-06
4.35619e-06
6.41459e-06
1.16755e-05
1.40614e-05
1.83567e-05
2.2054e-05
3.92022e-05
4.80809e-05
4.47489e-05
2.98721e-05
3.67737e-05
5.58154e-05
8.5203e-05
0.000143008
0.000410268
0.000205564
0.000333799
0.00019651
0.000383032
0.000293314
0.00115577
0.000568365
0.000473729
0.000638339
0.000692995
0.00126561
0.00312483
0.00680352
0.011927
0.0174406
0.0220565
0.0239445
0.0255037
0.0268935
0.0273088
0.0118566
0.0277587
0.0277203
0.0273178
0.0244139
0.0178589
0.00280193
0.000130348
7.49529e-05
3.46963e-05
1.1006e-05
3.80933e-06
8.44348e-07
2.60718e-08
0
0
0
0
0
0
0
0
0
0
0
0
0
0
0
0
0
0
0
0
0
0
0
0
0
0
0
0
0
0
0
0
0
0
0
0
0
0
0
0
0
0
0
0
0
0
0
1.52994e-06
2.37476e-06
2.35824e-07
2.11074e-06
4.57839e-06
9.98441e-06
1.37668e-05
2.22738e-05
5.14078e-05
2.71407e-05
2.62962e-05
2.65741e-05
2.92554e-05
4.23669e-05
8.74753e-05
0.000121971
0.000204647
0.00036424
0.000374595
0.000537999
0.000259433
0.000254349
0.000454705
0.00031881
0.0004429
0.000691097
0.000342727
0.000350895
0.000606516
0.00206733
0.0054944
0.00967332
0.0144559
0.0186776
0.0226249
0.0248755
0.0262234
0.0269789
0.0273023
0.027648
0.0277764
0.0277756
0.0273435
0.0243651
0.0188255
0.003898
0.00016504
0.000115622
4.83873e-05
5.06526e-07
4.55709e-07
4.9536e-07
2.58478e-08
0
0
0
0
0
0
0
0
0
0
0
0
0
0
0
0
0
0
0
0
0
0
0
0
0
0
0
0
0
0
0
0
0
0
0
0
0
0
0
0
0
0
0
0
0
0
0
1.57066e-06
3.50807e-06
1.01151e-06
6.22389e-06
8.11662e-06
1.22447e-05
1.94635e-05
3.46028e-05
0.000121926
4.41085e-05
6.29037e-05
5.76854e-05
4.14717e-05
5.69093e-05
7.55485e-05
0.000147374
0.000235199
0.000467859
0.000743082
0.00040765
0.000331007
0.000519022
0.000321703
0.000610215
0.000683911
0.000376777
0.000330299
0.000371341
0.00108966
0.00430593
0.00764416
0.00912851
0.0167311
0.0205691
0.0231677
0.0251918
0.026682
0.0269889
0.0272228
0.0275469
0.0119452
0.0119183
0.0273684
0.0243826
0.00941897
0.00309628
0.00019847
9.09225e-05
4.00172e-05
1.24396e-05
3.15778e-06
3.44596e-07
2.58699e-08
0
0
0
0
0
0
0
0
0
0
0
0
0
0
0
0
0
0
0
0
0
0
0
0
0
0
0
0
0
0
0
0
0
0
0
0
0
0
0
0
0
0
0
0
0
0
0
5.16116e-09
3.21557e-06
5.50833e-06
7.65951e-06
1.09512e-05
1.74679e-05
2.301e-05
3.31392e-05
4.96808e-05
7.94134e-05
5.57776e-05
6.66332e-05
9.97931e-05
0.000136568
0.000244144
0.000196419
0.00016024
0.000298131
0.000677082
0.000516974
0.000438242
0.000530905
0.000465195
0.000506174
0.000475776
0.000421344
0.000442557
0.000628978
0.00164011
0.00322848
0.010061
0.0151183
0.0103673
0.021748
0.0243482
0.0113569
0.0267895
0.0269291
0.0270728
0.0273687
0.011889
0.0277247
0.0273437
0.0243095
0.0176754
0.00312084
0.000643959
7.87683e-05
3.58035e-05
1.15682e-05
4.14743e-06
3.46642e-07
2.62057e-08
0
0
0
0
0
0
0
0
0
0
0
0
0
0
0
0
0
0
0
0
0
0
0
0
0
0
0
0
0
0
0
0
0
0
0
0
0
0
0
0
0
0
0
0
0
0
0
1.95543e-06
1.93614e-06
6.75843e-06
1.21472e-05
1.85182e-05
3.44497e-05
5.40278e-05
7.75472e-05
7.97387e-05
8.99437e-05
0.000103661
0.000140392
0.000130941
0.000183498
0.000150979
0.000157566
0.000186997
0.000615897
0.000514163
0.000803899
0.000584983
0.000911083
0.000760091
0.00135282
0.00102317
0.000652324
0.000859522
0.00136565
0.00325039
0.00686397
0.0114589
0.0163938
0.0203247
0.0226001
0.0246217
0.0113645
0.0267878
0.0115321
0.0268556
0.0271272
0.0274206
0.0276286
0.0273013
0.0242977
0.0168752
0.00255538
0.000152487
6.76547e-05
2.84129e-05
4.92671e-07
2.46912e-06
3.49496e-07
5.43999e-08
2.59315e-08
0
0
0
0
0
0
0
0
0
0
0
0
0
0
0
0
0
0
0
0
0
0
0
0
0
0
0
0
0
0
0
0
0
0
0
0
0
0
0
0
0
0
0
0
0
0
1.85048e-07
1.12168e-05
2.01699e-05
4.03377e-05
4.58459e-05
7.33582e-05
9.63923e-05
0.000114407
0.000173277
0.000174502
0.000178026
0.000184487
0.000210979
0.000335584
0.000203264
0.000208039
0.000234925
0.000628891
0.000561918
0.000701597
0.000773916
0.000919383
0.00139088
0.0021449
0.00130447
0.00117324
0.0018368
0.00234824
0.0060041
0.00760341
0.0147452
0.0182636
0.0216183
0.0108105
0.0247073
0.026125
0.0115096
0.0265431
0.0265685
0.0268446
0.0271819
0.02754
0.0115215
0.0240574
0.0158601
0.0017867
0.000454645
8.68585e-05
2.09855e-05
9.27564e-06
3.14477e-07
4.09483e-07
7.70811e-08
4.97676e-08
2.62064e-08
0
0
0
0
0
0
0
0
0
0
0
0
0
0
0
0
0
0
0
0
0
0
0
0
0
0
0
0
0
0
0
0
0
0
0
0
0
0
0
0
0
0
0
0
0
8.03725e-06
4.15792e-05
7.92866e-05
0.000112999
0.000164997
0.00020909
0.0001741
0.000377481
0.000771038
0.000842476
0.000622004
0.000572114
0.000318727
0.000440469
0.000258802
0.000265605
0.000580808
0.000390916
0.00058141
0.000877706
0.0015934
0.0015758
0.00239875
0.00300773
0.00220073
0.0022555
0.00318528
0.00353718
0.00854248
0.013767
0.017177
0.0206964
0.0225912
0.0241095
0.024564
0.0257562
0.011344
0.011341
0.0262228
0.0265355
0.0269335
0.0117337
0.011467
0.0237054
0.0145776
0.00118544
0.000123826
7.69898e-05
1.51458e-05
6.03285e-06
1.19733e-06
4.23002e-07
3.04476e-07
9.57115e-08
4.7404e-08
0
0
0
0
0
0
0
0
0
0
0
0
0
0
0
0
0
0
0
0
0
0
0
0
0
0
0
0
0
0
0
0
0
0
0
0
0
0
0
0
0
0
0
0
0
3.78064e-05
0.000272093
0.000302161
0.000333427
0.000254395
0.000749614
0.000565719
0.000336007
0.000657548
0.000965896
0.00124465
0.00107997
0.000876332
0.000647802
0.000461296
0.000365809
0.0003981
0.000665325
0.000793616
0.00143321
0.00398263
0.00295018
0.00325702
0.00383433
0.00322576
0.00441827
0.00375287
0.00723043
0.0115177
0.017151
0.020259
0.022145
0.0108787
0.0241225
0.0242233
0.0248976
0.0254453
0.0110847
0.0258079
0.0262066
0.026663
0.0272068
0.0265887
0.0232812
0.0124886
0.00062249
0.000100855
3.49358e-05
1.09873e-05
3.96928e-06
8.52665e-07
4.42041e-07
3.82794e-07
3.15156e-07
8.80855e-08
3.91283e-08
0
0
0
0
0
0
0
0
0
0
0
0
0
0
0
0
0
0
0
0
0
0
0
0
0
0
0
0
0
0
0
0
0
0
0
0
0
0
0
0
0
0
0
0
0.000245858
0.00963524
0.00322159
0.00198162
0.00113995
0.00148253
0.00064471
0.00100025
0.00234562
0.00360783
0.00447883
0.00421035
0.00299534
0.00208483
0.0019617
0.000726371
0.000511006
0.000552213
0.000914933
0.00231691
0.00374178
0.00300622
0.00398025
0.00485005
0.00590673
0.00454954
0.00787834
0.0105992
0.0152661
0.0105436
0.0107146
0.0107461
0.0109242
0.0108411
0.0107568
0.0107291
0.023481
0.0236728
0.0109707
0.0255565
0.0112649
0.0269982
0.0113013
0.0106405
0.0107897
0.000680445
8.03454e-05
2.89079e-05
9.38402e-06
3.53975e-06
7.68326e-07
4.38564e-07
4.10225e-07
3.92544e-07
2.77611e-07
2.61377e-08
0
0
0
0
0
0
0
0
0
0
0
0
0
0
0
0
0
0
0
0
0
0
0
0
0
0
0
0
0
0
0
0
0
0
0
0
0
0
0
0
0
0
0
0
0.000243577
0.00169157
0.00390149
0.0108526
0.00709109
0.00266497
0.00136457
0.00220827
0.00390918
0.01017
0.0196278
0.00988461
0.0100419
0.00531499
0.00269004
0.00126102
0.000772271
0.000710531
0.00132836
0.00228642
0.00324292
0.00366125
0.0050765
0.00719956
0.00580947
0.0109628
0.0120384
0.0149226
0.017759
0.0213148
0.0106942
0.0226884
0.0234647
0.02307
0.0227327
0.0103792
0.0103189
0.0226182
0.0107283
0.0109867
0.0248845
0.0113941
0.0111662
0.0216002
0.00820637
0.000188667
6.46652e-05
2.36734e-05
8.05206e-06
3.60839e-06
6.81636e-07
3.80678e-07
3.57693e-07
3.99497e-07
6.25938e-07
3.67562e-08
0
0
0
0
0
0
0
0
0
0
0
0
0
0
0
0
0
0
0
0
0
0
0
0
0
0
0
0
0
0
0
0
0
0
0
0
0
0
0
0
0
0
0
0
6.22139e-05
0.000594915
0.00226816
0.00927235
0.0156869
0.00590079
0.00251435
0.00289107
0.00667386
0.0107344
0.0227786
0.0113664
0.0108554
0.0120051
0.00540537
0.00286722
0.00169615
0.00131957
0.00233863
0.00271319
0.00314112
0.00417168
0.00601856
0.006237
0.00902439
0.0139761
0.00972574
0.0104237
0.0107371
0.0108501
0.0216763
0.0219644
0.0218081
0.0212659
0.0101464
0.00998036
0.0099811
0.0204802
0.0213725
0.0107576
0.0109928
0.0250391
0.0108805
0.0192559
0.00429035
0.000533179
0.0001266
1.96634e-05
8.27451e-06
3.30277e-06
4.57559e-07
1.42321e-07
7.2896e-08
9.06241e-08
7.11472e-08
0
0
0
0
0
0
0
0
0
0
0
0
0
0
0
0
0
0
0
0
0
0
0
0
0
0
0
0
0
0
0
0
0
0
0
0
0
0
0
0
0
0
0
0
0
0.000278369
0.000504139
0.00109113
0.00403849
0.0121121
0.00434271
0.0027625
0.00275105
0.00658795
0.0148633
0.0222656
0.0110479
0.0111152
0.00885535
0.00866864
0.00429096
0.00214566
0.00230709
0.00219321
0.00298561
0.00343969
0.00310814
0.00584331
0.00858725
0.0111452
0.0124485
0.0131934
0.0150255
0.0163738
0.0182161
0.0205336
0.0102466
0.0101135
0.0197813
0.00954096
0.01825
0.0183287
0.0192254
0.0203653
0.0214889
0.0107792
0.0109343
0.0224011
0.0173
0.00305415
0.000412423
4.36895e-05
1.77509e-05
8.22639e-06
1.02316e-06
1.24337e-07
5.16712e-08
2.90711e-08
2.61426e-08
1.10921e-08
0
0
0
0
0
0
0
0
0
0
0
0
0
0
0
0
0
0
0
0
0
0
0
0
0
0
0
0
0
0
0
0
0
0
0
0
0
0
0
0
0
0
0
0
0
0.000306686
0.000432963
0.00065977
0.00132149
0.00357695
0.00278377
0.00152803
0.0017269
0.00401885
0.00733886
0.0106769
0.011157
0.00721571
0.00512279
0.00466228
0.00347426
0.00306116
0.00316322
0.00367313
0.00364583
0.00418394
0.00488981
0.00547536
0.0067946
0.00914753
0.00844172
0.0117733
0.00779198
0.0133482
0.0163325
0.010167
0.0100787
0.0185535
0.00949217
0.00949148
0.0151089
0.0151109
0.0157661
0.010413
0.0206362
0.0107148
0.0226751
0.0209321
0.00783704
0.00187855
8.51825e-05
3.70945e-05
1.44808e-05
4.34708e-06
6.72566e-07
6.97334e-08
2.60769e-08
8.45089e-09
0
0
0
0
0
0
0
0
0
0
0
0
0
0
0
0
0
0
0
0
0
0
0
0
0
0
0
0
0
0
0
0
0
0
0
0
0
0
0
0
0
0
0
0
0
0
0
0.00026213
0.000354064
0.000570779
0.000701479
0.000898513
0.000874431
0.000691852
0.000903723
0.00171853
0.00247018
0.00294707
0.00294518
0.00234053
0.00171347
0.00139268
0.00178459
0.00300513
0.00396354
0.00411741
0.00319882
0.00451953
0.00320053
0.00482235
0.00553977
0.00681027
0.00881959
0.00960709
0.0100359
0.0115394
0.00884685
0.00938541
0.0152091
0.00917447
0.00909695
0.0138239
0.013384
0.00943896
0.0142293
0.0113828
0.0196864
0.0212532
0.0104875
0.0182723
0.0119189
0.00111568
6.63818e-05
3.16123e-05
1.1373e-05
2.8944e-06
6.05755e-07
7.50812e-08
2.61197e-08
0
0
0
0
0
0
0
0
0
0
0
0
0
0
0
0
0
0
0
0
0
0
0
0
0
0
0
0
0
0
0
0
0
0
0
0
0
0
0
0
0
0
0
0
0
0
0
0
0.00024529
0.000300193
0.000377088
0.000515813
0.000632086
0.000597032
0.000561263
0.000609037
0.000753754
0.000757568
0.000654063
0.000655571
0.000565104
0.000521113
0.000556432
0.000738588
0.0014317
0.00195132
0.00339466
0.00495598
0.00327956
0.00431195
0.00468461
0.00517313
0.00574483
0.00655118
0.00450962
0.00847665
0.0100187
0.00729319
0.0118159
0.012811
0.0127272
0.0124811
0.0119591
0.0116963
0.0115927
0.0122462
0.0107369
0.0114386
0.0203781
0.0205879
0.0164108
0.00539326
0.00081485
5.38358e-05
2.65391e-05
9.58776e-06
3.62862e-06
7.66662e-07
3.36893e-07
7.01828e-08
7.27121e-09
0
0
0
0
0
0
0
0
0
0
0
0
0
0
0
0
0
0
0
0
0
0
0
0
0
0
0
0
0
0
0
0
0
0
0
0
0
0
0
0
0
0
0
0
0
0
0
0.000251095
0.000294403
0.000310158
0.00034969
0.000461134
0.000553148
0.000566008
0.000553284
0.000519038
0.00041369
0.000368989
0.000322194
0.000266656
0.000256684
0.000299037
0.000399006
0.000621883
0.00114924
0.00211224
0.0024055
0.00247715
0.00354108
0.00437799
0.00374955
0.00365468
0.00593619
0.0064404
0.00705984
0.0086012
0.00559115
0.00585338
0.01009
0.00991066
0.00975645
0.00694767
0.00938298
0.00956009
0.00818143
0.00851479
0.0153267
0.0175855
0.0181641
0.0143013
0.00664877
0.000242845
4.60605e-05
2.16117e-05
8.58415e-06
3.64393e-06
1.30209e-06
4.93532e-07
3.93044e-07
2.61949e-08
0
0
0
0
0
0
0
0
0
0
0
0
0
0
0
0
0
0
0
0
0
0
0
0
0
0
0
0
0
0
0
0
0
0
0
0
0
0
0
0
0
0
0
0
0
0
0
0.00027066
0.000319131
0.000335189
0.000325622
0.000334855
0.000380984
0.000383659
0.000368278
0.000303383
0.00027871
0.000225263
0.000179774
0.000157807
0.000139184
0.000156162
0.000232628
0.000361426
0.000534773
0.00116877
0.00192289
0.00255331
0.00313159
0.00397574
0.004874
0.00518675
0.00564482
0.00367005
0.00626324
0.00701673
0.00758761
0.00790042
0.0050762
0.00510322
0.00837943
0.00829164
0.0080916
0.00813846
0.00879172
0.0110296
0.0143324
0.0167526
0.0168876
0.0113637
0.00433522
0.000127647
3.87308e-05
1.75544e-05
8.43779e-06
3.18339e-06
7.69336e-07
5.27314e-07
5.20892e-07
4.88757e-08
0
0
0
0
0
0
0
0
0
0
0
0
0
0
0
0
0
0
0
0
0
0
0
0
0
0
0
0
0
0
0
0
0
0
0
0
0
0
0
0
0
0
0
0
0
0
0
0.000301943
0.00036647
0.000384252
0.000355253
0.000308453
0.00026866
0.000223578
0.000165498
0.000174553
0.000131404
0.000123772
0.000111567
0.00010041
9.08423e-05
8.56426e-05
0.00012223
0.000220771
0.000379415
0.000635471
0.00132659
0.00190918
0.00310519
0.00394176
0.00451267
0.0049308
0.00535413
0.00551062
0.00553477
0.00588676
0.00616419
0.00651696
0.00442365
0.00709688
0.00706003
0.00700448
0.00673267
0.00813525
0.00862172
0.00981878
0.0133882
0.0158195
0.00909886
0.00914211
0.00248332
8.16294e-05
3.27237e-05
1.45307e-05
6.36643e-06
1.61156e-06
6.33373e-07
4.8032e-07
1.94518e-07
2.59827e-08
0
7.88562e-09
2.61234e-08
0
0
0
0
0
0
0
0
0
0
0
0
0
0
0
0
0
0
0
0
0
0
0
0
0
0
0
0
0
0
0
0
0
0
0
0
0
0
0
0
0
0
0
0
0.000345565
0.000416136
0.0004142
0.000389218
0.000306198
0.000195414
0.000158803
0.00011308
8.35138e-05
7.23542e-05
6.40579e-05
6.28521e-05
6.14725e-05
5.70996e-05
5.24503e-05
6.18323e-05
0.000127169
0.000262178
0.000458556
0.000907736
0.00169301
0.00280118
0.00406022
0.00431764
0.00454757
0.00325382
0.00330865
0.00483955
0.0048411
0.00498836
0.00533291
0.00573861
0.00591973
0.00597327
0.00580937
0.00553431
0.00655023
0.00806623
0.00933646
0.0124801
0.0148063
0.0137816
0.00664479
0.001287
6.18124e-05
2.80826e-05
1.18744e-05
4.52276e-06
1.04155e-06
5.77452e-07
2.74197e-07
4.12578e-08
0
0
0
0
0
0
0
0
0
0
0
0
0
0
0
0
0
0
0
0
0
0
0
0
0
0
0
0
0
0
0
0
0
0
0
0
0
0
0
0
0
0
0
0
0
0
0
0
0.00039696
0.000442585
0.000447368
0.00037162
0.00027151
0.000218684
0.000107982
7.7543e-05
4.58735e-05
3.37127e-05
3.37714e-05
3.74017e-05
3.99007e-05
3.88504e-05
3.44258e-05
3.61478e-05
6.90108e-05
0.000167763
0.00036094
0.000684086
0.00130335
0.00226219
0.00259674
0.00378775
0.00402593
0.0040822
0.00413869
0.00409412
0.00395477
0.00401513
0.00431562
0.00465232
0.00489229
0.00459474
0.00519383
0.00478494
0.00617401
0.00763125
0.00876318
0.0116648
0.0136397
0.0112184
0.00461153
0.00055642
5.12947e-05
2.46374e-05
1.03658e-05
3.27544e-06
8.18677e-07
5.21221e-07
2.5098e-07
2.60507e-08
0
0
0
0
0
0
0
0
0
0
0
0
0
0
0
0
0
0
0
0
0
0
0
0
0
0
0
0
0
0
0
0
0
0
0
0
0
0
0
0
0
0
0
0
0
0
0
0
0.000429016
0.000449449
0.000372994
0.000408893
0.000299845
0.000184499
0.000100768
4.10907e-05
2.0688e-05
1.72957e-05
2.0384e-05
2.4873e-05
2.82545e-05
2.96411e-05
2.84197e-05
2.69916e-05
3.92288e-05
9.87707e-05
0.000248904
0.00053131
0.00102711
0.0017649
0.00260423
0.00315131
0.00268459
0.00336022
0.00329032
0.00266947
0.00320557
0.00320103
0.00344435
0.00374601
0.00399824
0.00408729
0.00369956
0.00438046
0.0059509
0.00720955
0.00820491
0.00970974
0.0111883
0.00948792
0.0028813
0.000618225
4.45208e-05
2.1278e-05
9.14674e-06
2.34233e-06
6.96676e-07
3.76263e-07
6.26523e-08
0
0
0
0
0
0
0
0
0
0
0
0
0
0
0
0
0
0
0
0
0
0
0
0
0
0
0
0
0
0
0
0
0
0
0
0
0
0
0
0
0
0
0
0
0
0
0
0
0
0.000439018
0.000415231
0.000407376
0.00036268
0.000267194
0.000133952
5.34298e-05
2.40237e-05
1.05775e-05
1.07531e-05
1.4269e-05
1.8359e-05
2.2017e-05
2.49318e-05
2.56685e-05
2.41973e-05
2.69718e-05
5.64049e-05
0.000153716
0.000384588
0.00113028
0.00128943
0.0018917
0.00245515
0.00222972
0.00262807
0.00254894
0.0026703
0.00251568
0.00250189
0.00270571
0.00295605
0.00318844
0.00324399
0.00318589
0.00422933
0.00569718
0.0067244
0.00762774
0.00919217
0.00594339
0.00740787
0.00158658
0.000134615
3.82309e-05
1.76921e-05
7.77248e-06
1.63955e-06
5.62924e-07
3.33316e-07
4.00901e-08
0
0
0
0
0
0
0
0
0
0
0
0
0
0
0
0
0
0
0
0
0
0
0
0
0
0
0
0
0
0
0
0
0
0
0
0
0
0
0
0
0
0
0
0
0
0
0
0
0
0.000316862
0.000287754
0.000285183
0.000213241
0.000145665
7.8403e-05
3.49557e-05
1.43912e-05
6.87279e-06
7.74422e-06
1.11462e-05
1.46669e-05
1.81733e-05
2.13742e-05
2.34207e-05
2.32229e-05
2.28287e-05
3.43952e-05
8.91927e-05
0.000232084
0.000478847
0.000785157
0.00125976
0.00173967
0.00197895
0.00200431
0.00190086
0.00199534
0.00191467
0.00190756
0.00210186
0.00228473
0.00248024
0.00268151
0.00304172
0.00410918
0.00534315
0.00617727
0.00706696
0.00861532
0.00874159
0.00556553
0.000766369
7.99186e-05
3.262e-05
1.46527e-05
6.06517e-06
1.12826e-06
4.60281e-07
2.23858e-07
4.83812e-08
0
0
0
0
0
0
0
0
0
0
0
0
0
0
0
0
0
0
0
0
0
0
0
0
0
0
0
0
0
0
0
0
0
0
0
0
0
0
0
0
0
0
0
0
0
0
0
0
0
0.000248948
0.000108798
8.27223e-05
7.27205e-05
5.24943e-05
3.0465e-05
1.55066e-05
7.63094e-06
4.51093e-06
6.36697e-06
9.33948e-06
1.23203e-05
1.54179e-05
1.85519e-05
2.12795e-05
2.23734e-05
2.16626e-05
2.50478e-05
5.1098e-05
0.00012799
0.000276009
0.000467823
0.000764931
0.00115824
0.00142062
0.00162559
0.00153061
0.00144059
0.0013933
0.00141264
0.00178109
0.00172495
0.00185403
0.0022808
0.00287668
0.00380921
0.00489676
0.00555695
0.00649204
0.00766646
0.00702634
0.0036651
0.000325467
0.000258526
2.81326e-05
1.18829e-05
4.82651e-06
8.99191e-07
3.39912e-07
9.25699e-08
7.08618e-08
2.06095e-08
0
0
0
0
0
0
0
0
0
0
0
0
0
0
0
0
0
0
0
0
0
0
0
0
0
0
0
0
0
0
0
0
0
0
0
0
0
0
0
0
0
0
0
0
0
0
0
0
9.21752e-06
7.98718e-06
7.61078e-06
7.99734e-06
7.73282e-06
6.43749e-06
4.67951e-06
3.31613e-06
3.19998e-06
5.16553e-06
7.49103e-06
9.99064e-06
1.27609e-05
1.56492e-05
1.86137e-05
2.08332e-05
2.13583e-05
2.11173e-05
2.63507e-05
4.83529e-05
9.6027e-05
0.000210232
0.000339542
0.000506603
0.000700035
0.000754895
0.000756565
0.000759056
0.000759903
0.000807233
0.000919132
0.00101841
0.00134741
0.00180834
0.00241404
0.00327097
0.00417257
0.00459761
0.00567897
0.00616159
0.00476098
0.0014923
0.000442122
4.33232e-05
2.06984e-05
7.55481e-06
1.91954e-06
5.0327e-07
6.91372e-08
3.83183e-08
4.52016e-08
2.69154e-08
0
0
0
0
0
0
0
0
0
0
0
0
0
0
0
0
0
0
0
0
0
0
0
0
0
0
0
0
0
0
0
0
0
0
0
0
0
0
0
0
0
0
0
0
0
0
0
0
7.61855e-07
8.80715e-07
1.07635e-06
1.15313e-06
1.25373e-06
1.36752e-06
1.44141e-06
1.62306e-06
2.51143e-06
4.12495e-06
5.9327e-06
7.62938e-06
9.83486e-06
1.23404e-05
1.48857e-05
1.71842e-05
1.84871e-05
1.83727e-05
1.78875e-05
2.01373e-05
2.89689e-05
6.18586e-05
0.000113737
0.000167542
0.000218766
0.000245208
0.000257126
0.000264883
0.000288107
0.000341308
0.000425868
0.000545432
0.000796549
0.00117978
0.00170857
0.00242591
0.00309748
0.00363024
0.00433557
0.00402942
0.00219276
0.00066863
0.000251545
3.10466e-05
1.26113e-05
4.15268e-06
9.10058e-07
1.72913e-07
2.54013e-08
0
0
0
0
0
0
0
0
0
0
0
0
0
0
0
0
0
0
0
0
0
0
0
0
0
0
0
0
0
0
0
0
0
0
0
0
0
0
0
0
0
0
0
0
0
0
0
0
0
0
0
6.95447e-08
1.68433e-07
2.46873e-07
3.27664e-07
4.03976e-07
5.27684e-07
7.58033e-07
1.1788e-06
2.05542e-06
3.32972e-06
4.75036e-06
6.1252e-06
7.57248e-06
9.73915e-06
1.18741e-05
1.37306e-05
1.49298e-05
1.50403e-05
1.41154e-05
1.29386e-05
1.25458e-05
1.59251e-05
2.73272e-05
4.35257e-05
5.75571e-05
6.30243e-05
6.13735e-05
6.33946e-05
8.6335e-05
0.000130036
0.000202155
0.000321007
0.000470612
0.000759641
0.00119659
0.00176765
0.00206756
0.00277641
0.00280106
0.0019797
0.000624833
7.34199e-05
4.054e-05
1.9968e-05
7.27607e-06
2.06225e-06
5.44475e-07
6.30384e-08
4.10676e-09
0
0
0
0
0
0
0
0
0
0
0
0
0
0
0
0
0
0
0
0
0
0
0
0
0
0
0
0
0
0
0
0
0
0
0
0
0
0
0
0
0
0
0
0
0
0
0
0
0
0
0
1.14988e-08
4.01442e-08
8.07062e-08
1.35365e-07
2.31179e-07
3.93676e-07
6.5182e-07
1.06301e-06
1.7718e-06
2.74975e-06
3.84574e-06
4.96885e-06
6.17752e-06
7.71512e-06
9.68279e-06
1.12486e-05
1.22277e-05
1.23755e-05
1.16332e-05
1.02625e-05
8.73087e-06
7.6635e-06
7.34061e-06
8.2573e-06
1.04069e-05
1.40804e-05
1.78785e-05
2.43184e-05
3.5169e-05
5.62996e-05
9.77959e-05
0.000186347
0.000294209
0.000513099
0.000851253
0.00122971
0.00147866
0.00181666
0.00140236
0.000587251
9.47378e-05
4.49909e-05
2.74675e-05
1.20359e-05
4.3815e-06
1.08718e-06
3.29342e-07
4.54995e-08
0
0
0
0
0
0
0
0
0
0
0
0
0
0
0
0
0
0
0
0
0
0
0
0
0
0
0
0
0
0
0
0
0
0
0
0
0
0
0
0
0
0
0
0
0
0
0
0
0
0
0
0
0
1.50771e-08
4.10616e-08
1.03769e-07
2.24718e-07
4.14007e-07
7.04105e-07
1.09545e-06
1.60414e-06
2.33619e-06
3.16728e-06
4.07047e-06
5.14999e-06
6.50626e-06
8.10464e-06
9.60321e-06
1.05452e-05
1.0774e-05
1.03538e-05
9.38475e-06
8.03096e-06
6.57707e-06
5.31309e-06
4.5374e-06
4.42363e-06
5.10296e-06
6.51345e-06
8.74786e-06
1.37774e-05
2.57104e-05
5.34488e-05
0.000116454
0.00019867
0.000359567
0.000591649
0.000735254
0.00102908
0.00094174
0.000456728
8.8505e-05
4.15148e-05
3.52224e-05
1.813e-05
6.58105e-06
1.87085e-06
5.79752e-07
6.59894e-08
2.96659e-08
2.68332e-08
0
0
0
0
0
0
0
0
0
0
0
0
0
0
0
0
0
0
0
0
0
0
0
0
0
0
0
0
0
0
0
0
0
0
0
0
0
0
0
0
0
0
0
0
0
0
0
0
0
0
0
0
5.19548e-09
6.29027e-08
1.60967e-07
3.25993e-07
5.31728e-07
7.40395e-07
1.08381e-06
1.43234e-06
1.97009e-06
2.61637e-06
3.86821e-06
5.56129e-06
7.5939e-06
9.41901e-06
1.09934e-05
1.18381e-05
1.19169e-05
1.12922e-05
1.00841e-05
8.47092e-06
6.6768e-06
4.93432e-06
3.45619e-06
2.4136e-06
1.95186e-06
1.87484e-06
2.45252e-06
5.25441e-06
1.4675e-05
3.80515e-05
8.00027e-05
0.000131875
0.000229203
0.000359118
0.000517057
0.000524085
0.000302966
0.000105605
3.38859e-05
3.71789e-05
2.21152e-05
9.73077e-06
3.48344e-06
8.60245e-07
1.6794e-07
2.7047e-08
1.09456e-08
0
0
0
0
0
0
0
0
0
0
0
0
0
0
0
0
0
0
0
0
0
0
0
0
0
0
0
0
0
0
0
0
0
0
0
0
0
0
0
0
0
0
0
0
0
0
0
0
0
0
0
0
0
2.26679e-09
9.55646e-08
2.35336e-07
4.22449e-07
5.56198e-07
7.05972e-07
7.77507e-07
1.02891e-06
1.52845e-06
2.86e-06
4.8224e-06
7.01655e-06
9.62695e-06
1.19258e-05
1.35063e-05
1.42577e-05
1.40662e-05
1.30264e-05
1.1336e-05
9.2405e-06
6.98957e-06
4.82194e-06
2.9276e-06
1.48043e-06
7.4432e-07
5.45267e-07
6.57508e-07
3.28881e-06
1.28049e-05
3.08548e-05
5.19395e-05
8.15015e-05
0.000143867
0.000230973
0.000282638
0.000171337
5.59109e-05
3.24182e-05
2.73307e-05
2.30528e-05
1.27604e-05
4.96109e-06
1.38344e-06
4.83376e-07
4.70607e-08
1.32589e-08
0
0
0
0
0
0
0
0
0
0
0
0
0
0
0
0
0
0
0
0
0
0
0
0
0
0
0
0
0
0
0
0
0
0
0
0
0
0
0
0
0
0
0
0
0
0
0
0
0
0
0
0
0
0
0
6.98931e-08
1.96436e-07
3.75444e-07
4.77054e-07
4.01283e-07
2.65667e-07
3.6763e-07
1.20044e-06
3.13537e-06
5.78518e-06
8.54869e-06
1.16919e-05
1.48481e-05
1.66145e-05
1.72889e-05
1.67788e-05
1.51816e-05
1.28294e-05
1.011e-05
7.34531e-06
4.80704e-06
2.7047e-06
1.24351e-06
5.49669e-07
4.12461e-07
4.845e-07
4.4831e-06
1.19524e-05
2.20505e-05
3.0187e-05
5.61555e-05
9.1675e-05
0.000118927
0.000102279
3.65635e-05
1.7496e-05
2.58161e-05
1.85636e-05
1.28956e-05
5.99509e-06
2.22897e-06
7.52246e-07
3.003e-07
3.21087e-08
4.27353e-09
0
0
0
0
0
0
0
0
0
0
0
0
0
0
0
0
0
0
0
0
0
0
0
0
0
0
0
0
0
0
0
0
0
0
0
0
0
0
0
0
0
0
0
0
0
0
0
0
0
0
0
0
0
0
0
0
9.33674e-08
1.34724e-07
5.42353e-08
9.82417e-08
1.86824e-07
7.07403e-08
6.75332e-07
2.93856e-06
6.27275e-06
9.69983e-06
1.3443e-05
1.74552e-05
1.96326e-05
2.03759e-05
1.95646e-05
1.73592e-05
1.42869e-05
1.09057e-05
7.64235e-06
4.78233e-06
2.52251e-06
1.03049e-06
3.72031e-07
2.75848e-07
1.71414e-06
5.37107e-06
9.55357e-06
1.20753e-05
1.70124e-05
2.83845e-05
3.66632e-05
4.08339e-05
2.47362e-05
1.45322e-05
1.62684e-05
1.88662e-05
1.13134e-05
5.74186e-06
2.76843e-06
8.90789e-07
4.04442e-07
5.12385e-08
2.57758e-08
0
0
0
0
0
0
0
0
0
0
0
0
0
0
0
0
0
0
0
0
0
0
0
0
0
0
0
0
0
0
0
0
0
0
0
0
0
0
0
0
0
0
0
0
0
0
0
0
0
0
0
0
0
0
0
0
0
2.72656e-08
3.38713e-08
8.12963e-08
1.05976e-07
1.24489e-07
6.44868e-08
3.35463e-07
2.26457e-06
6.01079e-06
1.02381e-05
1.4823e-05
1.94254e-05
2.2039e-05
2.29592e-05
2.19709e-05
1.92766e-05
1.55711e-05
1.16178e-05
7.94901e-06
4.84932e-06
2.4797e-06
9.51141e-07
3.59983e-07
9.48597e-07
2.57595e-06
4.43068e-06
5.4096e-06
5.47427e-06
8.35103e-06
1.06385e-05
1.31917e-05
1.25062e-05
1.32282e-05
1.49243e-05
1.34233e-05
1.19574e-05
5.89739e-06
2.80786e-06
1.02009e-06
4.33354e-07
6.12133e-08
2.39302e-08
0
0
0
0
0
0
0
0
0
0
0
0
0
0
0
0
0
0
0
0
0
0
0
0
0
0
0
0
0
0
0
0
0
0
0
0
0
0
0
0
0
0
0
0
0
0
0
0
0
0
0
0
0
0
0
0
0
0
0
1.85641e-08
4.03163e-08
1.15691e-07
1.16127e-07
5.79914e-08
1.98628e-07
1.36711e-06
4.93131e-06
9.55622e-06
1.50964e-05
2.03604e-05
2.34765e-05
2.4668e-05
2.37134e-05
2.07925e-05
1.66785e-05
1.23457e-05
8.42026e-06
5.17912e-06
2.75718e-06
1.32719e-06
9.1791e-07
1.3104e-06
2.13892e-06
2.79996e-06
3.27296e-06
4.74793e-06
7.97207e-06
1.08916e-05
1.56945e-05
1.20685e-05
1.48225e-05
1.36101e-05
9.88987e-06
6.57874e-06
3.18994e-06
1.09507e-06
5.02422e-07
5.70843e-08
2.29166e-08
0
0
0
0
0
0
0
0
0
0
0
0
0
0
0
0
0
0
0
0
0
0
0
0
0
0
0
0
0
0
0
0
0
0
0
0
0
0
0
0
0
0
0
0
0
0
0
0
0
0
0
0
0
0
0
0
0
0
0
0
0
2.83891e-08
6.39255e-08
8.5647e-08
4.01686e-08
1.57781e-07
6.4481e-07
3.35581e-06
8.16839e-06
1.3969e-05
1.99089e-05
2.37141e-05
2.53234e-05
2.468e-05
2.18457e-05
1.76597e-05
1.32011e-05
9.21294e-06
5.97775e-06
3.58701e-06
2.07631e-06
1.48577e-06
1.56683e-06
1.96441e-06
2.76349e-06
4.60721e-06
8.14795e-06
1.47073e-05
1.52053e-05
1.59972e-05
1.35881e-05
1.28498e-05
9.86946e-06
5.72941e-06
3.25556e-06
1.28943e-06
6.32184e-07
1.55584e-07
2.13976e-08
0
0
0
0
0
0
0
0
0
0
0
0
0
0
0
0
0
0
0
0
0
0
0
0
0
0
0
0
0
0
0
0
0
0
0
0
0
0
0
0
0
0
0
0
0
0
0
0
0
0
0
0
0
0
0
0
0
0
0
0
0
0
0
0
5.33445e-08
1.98724e-08
8.9862e-08
3.79462e-07
1.72881e-06
5.91693e-06
1.13497e-05
1.78238e-05
2.26466e-05
2.48387e-05
2.47394e-05
2.23959e-05
1.85098e-05
1.42493e-05
1.04637e-05
7.41153e-06
5.07472e-06
3.2905e-06
2.47803e-06
2.57516e-06
3.17772e-06
4.86766e-06
8.12354e-06
1.25305e-05
1.75962e-05
1.70057e-05
1.36193e-05
1.26401e-05
9.3435e-06
5.63144e-06
2.78565e-06
1.27533e-06
6.40934e-07
2.33147e-07
3.3753e-08
1.12973e-08
0
0
0
0
0
0
0
0
0
0
0
0
0
0
0
0
0
0
0
0
0
0
0
0
0
0
0
0
0
0
0
0
0
0
0
0
0
0
0
0
0
0
0
0
0
0
0
0
0
0
0
0
0
0
0
0
0
0
0
0
0
0
0
0
1.59803e-08
1.17802e-08
3.887e-08
1.9406e-07
6.86056e-07
3.35392e-06
8.21338e-06
1.444e-05
2.00593e-05
2.31162e-05
2.37998e-05
2.22592e-05
1.90864e-05
1.54029e-05
1.21686e-05
9.60311e-06
7.79665e-06
5.37329e-06
4.39693e-06
5.42964e-06
5.93178e-06
8.01108e-06