/*--------------------------------*- C++ -*----------------------------------*\
  =========                 |
  \\      /  F ield         | OpenFOAM: The Open Source CFD Toolbox
   \\    /   O peration     | Website:  https://openfoam.org
    \\  /    A nd           | Version:  6
     \\/     M anipulation  |
\*---------------------------------------------------------------------------*/
FoamFile
{
    version     2.0;
    format      ascii;
    class       volScalarField;
    location    "0.005";
    object      C2H5OH;
}
// * * * * * * * * * * * * * * * * * * * * * * * * * * * * * * * * * * * * * //

dimensions      [0 0 0 0 0 0 0];

internalField   nonuniform List<scalar> 
8000
(
0.0130155
0.0130404
0.0130579
0.0130938
0.0131751
0.013339
0.0136033
0.013948
0.0143046
0.0146541
0.015024
0.0154269
0.0158461
0.0161942
0.016387
0.016462
0.0165533
0.0167763
0.0171832
0.017967
0.0191898
0.0192835
0.0130309
0.0143724
0.0142088
0.0157436
0.0161455
0.0123186
0.00777707
0.00481216
0.00338004
0.00298152
0.00313291
0.00442205
0.00655971
0.00934561
0.0131047
0.0172744
0.0214885
0.0245588
0.0279477
0.0272088
0.0208049
0.0125588
0.00452471
0.00269736
0.00245115
0.00316175
0.00440359
0.00209192
0.000351935
3.33591e-05
2.15089e-06
1.35139e-07
0
0
0
0
0
0
0
0
0
0
0
0
0
0
0
0
0
0
0
0
0
0
0
0
0
0
0
0
0
0
0
0
0
0
0
0
0
0
0
0
0
0
0
0
0
0
0.0130725
0.0131892
0.0131817
0.013209
0.013288
0.0134896
0.0138529
0.014397
0.0149381
0.015329
0.0157199
0.0161545
0.016637
0.0171044
0.0172735
0.0171934
0.017152
0.017319
0.0176326
0.0182822
0.0194689
0.0188463
0.00430989
0.0144917
0.0169923
0.0206983
0.0192115
0.0132236
0.00821828
0.00478148
0.00328721
0.0029207
0.00313121
0.00454199
0.00691947
0.0102212
0.0135697
0.0185158
0.0218551
0.0273656
0.0300285
0.0275344
0.0210274
0.0127246
0.00467398
0.00294777
0.00304207
0.00360077
0.0096898
0.00710311
0.0017131
5.97024e-05
2.70527e-06
1.47255e-07
0
0
0
0
0
0
0
0
0
0
0
0
0
0
0
0
0
0
0
0
0
0
0
0
0
0
0
0
0
0
0
0
0
0
0
0
0
0
0
0
0
0
0
0
0
0
0.0132727
0.0141495
0.0137064
0.0135101
0.0136247
0.0138221
0.0143205
0.015321
0.016057
0.0169426
0.0173369
0.0177853
0.0182812
0.0190372
0.0176127
0.0173868
0.0183051
0.0184163
0.0185523
0.0188577
0.0196361
0.019988
0.0133581
0.0151617
0.0142545
0.017617
0.0411716
0.0140201
0.00724076
0.00416004
0.00301987
0.00283037
0.00318306
0.00485152
0.00777342
0.0116796
0.0151705
0.0193544
0.0237387
0.0281853
0.0308199
0.029975
0.0225896
0.0136297
0.00486719
0.00327622
0.00733503
0.00392016
0.0157635
0.00444183
0.000672496
3.4433e-05
1.59827e-06
1.54965e-07
0
0
0
0
0
0
0
0
0
0
0
0
0
0
0
0
0
0
0
0
0
0
0
0
0
0
0
0
0
0
0
0
0
0
0
0
0
0
0
0
0
0
0
0
0
0
0.0130805
0.0132843
0.0135109
0.0137911
0.0140613
0.0142962
0.0147549
0.015567
0.0168947
0.0170009
0.0199555
0.0203689
0.0208605
0.0176489
0.0190681
0.0188197
0.0190172
0.0200099
0.0169576
0.0197544
0.0202161
0.0173406
0.017797
0.0164429
0.0131177
0.011296
0.010558
0.00821365
0.00527464
0.0038683
0.00289056
0.00287547
0.00339598
0.0053953
0.00914352
0.0135839
0.0173436
0.0213639
0.0247352
0.031112
0.0318644
0.0309704
0.0233248
0.0141048
0.00520014
0.0031186
0.00298022
0.00273489
0.00346415
0.00171418
0.000184867
1.57208e-05
9.79887e-07
1.85312e-07
0
0
0
0
0
0
0
0
0
0
0
0
0
0
0
0
0
0
0
0
0
0
0
0
0
0
0
0
0
0
0
0
0
0
0
0
0
0
0
0
0
0
0
0
0
0
0.0130838
0.0134653
0.0140588
0.015034
0.015517
0.0155857
0.0157181
0.015901
0.0171979
0.0176964
0.0173732
0.017725
0.0181329
0.0202798
0.0193354
0.0176271
0.0199561
0.0172502
0.0209556
0.0207858
0.017086
0.0171803
0.0196806
0.0150485
0.0121995
0.0105065
0.00920444
0.0130446
0.0077475
0.00440221
0.00316863
0.00316419
0.00385485
0.00602197
0.0111051
0.044742
0.0206517
0.0237377
0.030149
0.0325012
0.0330262
0.0320571
0.0267796
0.0153632
0.00560624
0.0030197
0.00255592
0.00203162
0.00169792
0.000665587
7.62288e-05
9.51483e-06
1.09329e-06
1.79055e-07
0
0
0
0
0
0
0
0
0
0
0
0
0
0
0
0
0
0
0
0
0
0
0
0
0
0
0
0
0
0
0
0
0
0
0
0
0
0
0
0
0
0
0
0
0
0
0.0131114
0.013629
0.0149934
0.0163453
0.0169776
0.0166487
0.016019
0.0160019
0.016631
0.0180539
0.0198823
0.0201434
0.0196547
0.0190238
0.0190136
0.0197043
0.0210178
0.0172667
0.0227436
0.0167832
0.0220569
0.0169066
0.0203594
0.0146419
0.00900248
0.0113544
0.00879751
0.00583085
0.00334188
0.00389588
0.0032352
0.00360703
0.0111509
0.00704316
0.0121588
0.0175812
0.021747
0.027357
0.0313437
0.0339646
0.0341717
0.0330762
0.05663
0.0159891
0.00608828
0.00310915
0.00281701
0.00204689
0.00124642
0.000488488
0.000114598
2.64351e-05
1.95036e-06
1.64871e-07
0
0
0
0
0
0
0
0
0
0
0
0
0
0
0
0
0
0
0
0
0
0
0
0
0
0
0
0
0
0
0
0
0
0
0
0
0
0
0
0
0
0
0
0
0
0
0.0131235
0.0133551
0.0138665
0.0144627
0.0150239
0.0154991
0.0153947
0.0162653
0.016878
0.0175564
0.016983
0.0172897
0.0173442
0.0188172
0.0193384
0.0205042
0.02178
0.0235507
0.0147884
0.0235774
0.0159533
0.0215206
0.0158286
0.0176477
0.00149743
0.0129515
0.00965842
0.00676886
0.00468478
0.00374504
0.00367841
0.0043207
0.00567369
0.00836206
0.0132941
0.0193377
0.0240283
0.0302267
0.0322032
0.0622807
0.0351554
0.0339712
0.0298121
0.0163237
0.00668037
0.00337994
0.00353824
0.00314303
0.00227351
0.000993326
0.000317071
5.02324e-05
3.32919e-06
2.78174e-07
0
0
0
0
0
0
0
0
0
0
0
0
0
0
0
0
0
0
0
0
0
0
0
0
0
0
0
0
0
0
0
0
0
0
0
0
0
0
0
0
0
0
0
0
0
0
0.0137526
0.0135863
0.0137956
0.0143176
0.0149814
0.0155139
0.016415
0.0176781
0.0172832
0.0185008
0.0184015
0.0182444
0.0184208
0.0194037
0.0176672
0.0177535
0.0176229
0.0165132
0.0231
0.0131133
0.0230148
0.0217676
0.0145298
0.0183427
0.0144667
0.00644485
0.0095598
0.00640132
0.00465173
0.00442174
0.00511359
0.00560326
0.00723832
0.00999935
0.0154928
0.0216177
0.0278164
0.0311879
0.0326288
0.0352171
0.0358327
0.0348782
0.0299624
0.0173273
0.00742098
0.00374662
0.00458557
0.0108091
0.00405681
0.00422485
0.00114683
3.09078e-05
2.70127e-06
3.79376e-07
0
0
0
0
0
0
0
0
0
0
0
0
0
0
0
0
0
0
0
0
0
0
0
0
0
0
0
0
0
0
0
0
0
0
0
0
0
0
0
0
0
0
0
0
0
0
0.0141542
0.01384
0.0143658
0.0152909
0.0157034
0.0162417
0.0166493
0.0190026
0.0180721
0.0197124
0.0169817
0.0166292
0.0186952
0.0195015
0.020544
0.0175704
0.0174048
0.0156274
0.00139739
0.0229318
0.022342
0.0125175
0.0202182
0.0103222
0.00715402
0.0132899
0.00917267
0.00618711
0.00514828
0.0057248
0.00942689
0.0123366
0.00927496
0.0127483
0.0188664
0.0243804
0.0309805
0.0318243
0.0326161
0.0348605
0.0638187
0.063177
0.0301887
0.0173668
0.0243217
0.00347458
0.00578438
0.00415045
0.00326777
0.00169436
0.000254388
2.12247e-05
2.71344e-06
6.07614e-07
1.69395e-07
0
0
0
0
0
0
0
0
0
0
0
0
0
0
0
0
0
0
0
0
0
0
0
0
0
0
0
0
0
0
0
0
0
0
0
0
0
0
0
0
0
0
0
0
0
0.0136418
0.0147936
0.0155501
0.0151326
0.0158321
0.0162528
0.0172507
0.0180936
0.0190451
0.0164785
0.0186497
0.0189649
0.0166021
0.0171235
0.0173459
0.0174253
0.0230187
0.0254143
0.0219053
0.0236736
0.0219471
0.0220988
0.0188991
0.0170227
0.015258
0.011744
0.00826467
0.0059312
0.00514777
0.00686452
0.00679123
0.00871913
0.0264042
0.0144801
0.0213394
0.0558258
0.032176
0.0321267
0.0321981
0.0339292
0.0629969
0.0350821
0.0301294
0.017203
0.00662051
0.00397197
0.0115603
0.00363256
0.00308577
0.00165217
0.000390877
2.16097e-05
3.68695e-06
1.30065e-06
3.47845e-07
0
0
0
0
0
0
0
0
0
0
0
0
0
0
0
0
0
0
0
0
0
0
0
0
0
0
0
0
0
0
0
0
0
0
0
0
0
0
0
0
0
0
0
0
0
0.0149147
0.0141529
0.0144139
0.0149061
0.0158013
0.0161253
0.0164841
0.0163458
0.0182565
0.0181534
0.0184014
0.0159073
0.0192176
0.0165946
0.0206066
0.0208197
0.0218763
0.0135985
0.00241898
0.00138735
0.0199186
0.00456119
0.0161155
0.00347705
0.00484557
0.0103845
0.00786272
0.00617833
0.00598357
0.00692586
0.00781669
0.0099356
0.0135384
0.0175599
0.0233608
0.0560876
0.0327475
0.0583159
0.0314374
0.0326206
0.0340249
0.03454
0.0300598
0.0161149
0.00620875
0.00423743
0.00465962
0.00316225
0.00236045
0.00191336
0.000187295
2.19535e-05
5.69257e-06
2.78762e-06
9.68208e-07
1.68584e-07
0
0
0
0
0
0
0
0
0
0
0
0
0
0
0
0
0
0
0
0
0
0
0
0
0
0
0
0
0
0
0
0
0
0
0
0
0
0
0
0
0
0
0
0
0.0133453
0.013799
0.0148501
0.0150671
0.0173286
0.0159474
0.0163563
0.0184075
0.0168775
0.0165162
0.0160555
0.0162449
0.0175129
0.0149078
0.0183885
0.0188495
0.0200028
0.0125018
0.0028521
0.00286436
0.0167323
0.0147354
0.0135603
0.0137821
0.0115134
0.00896956
0.00770983
0.00382024
0.00755835
0.0121221
0.00973263
0.0122717
0.0159667
0.0475146
0.0235434
0.0298037
0.0582884
0.0312855
0.0303615
0.0311808
0.0324774
0.0342115
0.0568991
0.0156955
0.00578341
0.00191907
0.013408
0.007543
0.00163483
0.0011101
0.000807062
2.60479e-05
9.21656e-06
5.33818e-06
2.40968e-06
3.92753e-07
0
0
0
0
0
0
0
0
0
0
0
0
0
0
0
0
0
0
0
0
0
0
0
0
0
0
0
0
0
0
0
0
0
0
0
0
0
0
0
0
0
0
0
0
0.0134539
0.0148958
0.0160376
0.0156079
0.0158116
0.0153055
0.0179313
0.0148867
0.0176757
0.00806059
0.0113806
0.0116677
0.013186
0.0126383
0.0142677
0.0158548
0.0120953
0.020278
0.0215797
0.00264097
0.0144322
0.0123872
0.0120128
0.00377973
0.0100041
0.00829862
0.00743818
0.00638981
0.0078991
0.00985985
0.0116839
0.0148197
0.0192651
0.0211868
0.0230672
0.0285243
0.0563279
0.0562156
0.0291027
0.029752
0.031052
0.0605459
0.0562618
0.0151183
0.00533063
0.00196279
0.0041876
0.00629418
0.00109886
0.000547417
7.30554e-05
2.68325e-05
1.94808e-05
1.02607e-05
5.15773e-06
1.26249e-06
0
0
0
0
0
0
0
0
0
0
0
0
0
0
0
0
0
0
0
0
0
0
0
0
0
0
0
0
0
0
0
0
0
0
0
0
0
0
0
0
0
0
0
0
0.0156106
0.012265
0.0120539
0.0125016
0.01311
0.00698979
0.0116305
0.0158831
0.0168881
0.0149263
0.012456
0.0112143
0.0106856
0.0106392
0.0112566
0.0128576
0.0160263
0.00396879
0.0190908
0.0019149
0.00625164
0.0114895
0.0105602
0.0104471
0.00476362
0.00877077
0.00711894
0.0083374
0.00942286
0.01247
0.0151
0.0180999
0.0487621
0.0222623
0.0221668
0.0250748
0.0278782
0.0534894
0.0276797
0.0284072
0.0296576
0.0322747
0.0265479
0.0136904
0.00503061
0.00414918
0.00345244
0.00167052
0.000763973
0.000304523
5.02161e-05
2.80683e-05
2.4829e-05
2.11021e-05
9.91141e-06
4.52404e-06
1.7439e-07
0
0
0
0
0
0
0
0
0
0
0
0
0
0
0
0
0
0
0
0
0
0
0
0
0
0
0
0
0
0
0
0
0
0
0
0
0
0
0
0
0
0
0
0.0170063
0.00843405
0.00671039
0.00372662
0.0122467
0.00216883
0.0151243
0.00330817
0.00296938
0.0172032
0.00999109
0.0153843
0.00550032
0.0114204
0.00313701
0.0114505
0.0126408
0.014836
0.015406
0.00237624
0.00584819
0.00358413
0.00928549
0.00954012
0.00979524
0.0131214
0.00908232
0.00884966
0.0107015
0.0411423
0.0429636
0.0468511
0.0495334
0.049038
0.0486921
0.0492242
0.0203396
0.0201921
0.0515749
0.0247969
0.0545623
0.0311987
0.0536456
0.0381846
0.00459013
0.00560353
0.00280369
0.00141741
0.000646581
0.000266832
4.52847e-05
2.78875e-05
2.64717e-05
2.5773e-05
1.91822e-05
2.4439e-06
1.68389e-07
0
0
0
0
0
0
0
0
0
0
0
0
0
0
0
0
0
0
0
0
0
0
0
0
0
0
0
0
0
0
0
0
0
0
0
0
0
0
0
0
0
0
0
0.000159915
0.0117333
0.0131715
0.0257015
0.0155598
0.00321992
0.0114435
0.0123002
0.00507566
0.020075
0.0379368
0.0281411
0.0158182
0.0116389
0.00924608
0.00818251
0.00864001
0.0102337
0.011642
0.00244483
0.00899571
0.00786866
0.00810482
0.00937796
0.0140156
0.0097185
0.00953595
0.00998615
0.0113302
0.0149653
0.0414256
0.0184011
0.0195187
0.0185468
0.0178811
0.0457261
0.0450436
0.0167509
0.0480867
0.0505255
0.0212082
0.0560425
0.0509985
0.0111477
0.00431797
0.00374063
0.00236533
0.00121867
0.000587629
0.000288683
4.06578e-05
2.44951e-05
2.33372e-05
2.61466e-05
3.78541e-05
4.37331e-06
1.67389e-07
0
0
0
0
0
0
0
0
0
0
0
0
0
0
0
0
0
0
0
0
0
0
0
0
0
0
0
0
0
0
0
0
0
0
0
0
0
0
0
0
0
0
0
1.44042e-05
0.00491397
0.006519
0.00925013
0.013791
0.0116951
0.00856494
0.00877854
0.0129395
0.0340511
0.0337597
0.0553889
0.0331673
0.0106142
0.00740613
0.00605321
0.00616732
0.00724732
0.00883915
0.00817576
0.00663885
0.00607539
0.00668606
0.0117238
0.011132
0.00936866
0.0163896
0.0228914
0.026767
0.0316031
0.0134589
0.0155124
0.0153744
0.0154002
0.0408025
0.0394508
0.0390456
0.0123131
0.0139183
0.0475867
0.0497172
0.0214948
0.0471718
0.00920904
0.00632474
0.0110638
0.00832618
0.0010793
0.000692175
0.000265782
2.83341e-05
1.2117e-05
8.89674e-06
1.00158e-05
8.26476e-06
9.73537e-07
0
0
0
0
0
0
0
0
0
0
0
0
0
0
0
0
0
0
0
0
0
0
0
0
0
0
0
0
0
0
0
0
0
0
0
0
0
0
0
0
0
0
0
0
0.000112722
0.00128429
0.00152448
0.00255692
0.00591297
0.00628051
0.00435554
0.00433462
0.00685929
0.00921472
0.0188223
0.0484386
0.0433431
0.022747
0.00421439
0.00377275
0.00224157
0.00504551
0.00249975
0.00579596
0.00486801
0.00431257
0.00500069
0.00564135
0.00675896
0.00674527
0.00645335
0.00653825
0.00694586
0.00838708
0.0114565
0.0391026
0.0394839
0.0118883
0.0353678
0.00937834
0.00904022
0.00947375
0.0108806
0.0134889
0.0470607
0.0484812
0.0140537
0.00747422
0.00395802
0.0125124
0.00177876
0.00108756
0.000770185
5.90337e-05
1.13149e-05
5.47592e-06
3.91223e-06
3.18339e-06
1.64802e-06
1.68942e-07
0
0
0
0
0
0
0
0
0
0
0
0
0
0
0
0
0
0
0
0
0
0
0
0
0
0
0
0
0
0
0
0
0
0
0
0
0
0
0
0
0
0
0
0
0.000129271
0.000707177
0.00102441
0.000421879
0.000579872
0.00105441
0.00082564
0.000879939
0.00150063
0.00193611
0.00286301
0.00298853
0.012359
0.00511973
0.000984061
0.00119108
0.00180481
0.00295004
0.00373472
0.00385795
0.00336691
0.00314435
0.00340225
0.00390446
0.00421265
0.00830503
0.00408815
0.00920264
0.00444954
0.00616745
0.0256973
0.0296382
0.00997955
0.0326925
0.0271884
0.00616854
0.00591659
0.00655973
0.0342154
0.0106931
0.0427478
0.0141559
0.0109171
0.0229138
0.0029122
0.00262252
0.00161658
0.000943704
0.000316819
3.93004e-05
6.87513e-06
3.14955e-06
1.59795e-06
9.2129e-07
2.78088e-07
0
0
0
0
0
0
0
0
0
0
0
0
0
0
0
0
0
0
0
0
0
0
0
0
0
0
0
0
0
0
0
0
0
0
0
0
0
0
0
0
0
0
0
0
0
0.000130558
0.000310935
0.00085192
0.00114308
0.000620075
0.000277876
0.000242963
0.000182997
0.000128711
0.000161275
0.000280964
0.000334863
0.000260157
0.00015437
0.000120036
0.000135584
0.000505069
0.00129654
0.00207219
0.00454606
0.00213646
0.00483798
0.00215684
0.00237122
0.00258004
0.00246556
0.00240464
0.00243574
0.00304038
0.0126243
0.0179772
0.00631247
0.023008
0.0233324
0.00531344
0.00482363
0.0177529
0.00523844
0.024595
0.00893751
0.0110922
0.039098
0.00807068
0.00503018
0.00341499
0.00216086
0.00146051
0.000789183
0.000191722
3.62122e-05
9.03361e-06
3.23895e-06
1.03222e-06
3.74459e-07
1.909e-07
0
0
0
0
0
0
0
0
0
0
0
0
0
0
0
0
0
0
0
0
0
0
0
0
0
0
0
0
0
0
0
0
0
0
0
0
0
0
0
0
0
0
0
0
0
0.000130558
0.000162382
0.000327084
0.000680539
0.00109302
0.00104927
0.000926109
0.000772644
0.000593607
0.000542694
0.000485424
0.000418009
0.00032669
0.0002084
0.000102029
3.8457e-05
8.36801e-05
0.00169478
0.000902674
0.0011793
0.00455944
0.00123185
0.00129914
0.00141293
0.00149103
0.00143232
0.00835212
0.00163488
0.00223188
0.0119433
0.00390165
0.00460449
0.00472999
0.00454132
0.00403572
0.00376374
0.00374091
0.00423503
0.0142991
0.025192
0.00936692
0.00982376
0.00671856
0.0143603
0.00550371
0.00183146
0.00129624
0.00066966
0.000278979
4.52375e-05
2.2337e-05
6.90361e-06
1.57979e-06
4.32315e-07
1.70987e-07
0
0
0
0
0
0
0
0
0
0
0
0
0
0
0
0
0
0
0
0
0
0
0
0
0
0
0
0
0
0
0
0
0
0
0
0
0
0
0
0
0
0
0
0
0
0.000130665
0.00013542
0.000162636
0.000265091
0.000549602
0.000884511
0.0010143
0.00105797
0.00101874
0.000910049
0.00079311
0.000658521
0.000507034
0.000338752
0.00018246
7.81627e-05
3.08024e-05
7.26521e-05
0.000289089
0.00236595
0.002588
0.00071564
0.000837512
0.00667141
0.00652078
0.000938265
0.00100642
0.00122958
0.0017419
0.0134702
0.0152755
0.00322965
0.00323766
0.0031397
0.0156153
0.00277385
0.00301516
0.00823884
0.00834483
0.0055134
0.00708464
0.00730312
0.0055434
0.00375199
0.00263012
0.00164386
0.00110819
0.000645825
0.000295798
8.53243e-05
3.08999e-05
2.60954e-05
3.38087e-06
9.32063e-07
4.18851e-07
1.6835e-07
0
0
0
0
0
0
0
0
0
0
0
0
0
0
0
0
0
0
0
0
0
0
0
0
0
0
0
0
0
0
0
0
0
0
0
0
0
0
0
0
0
0
0
0
0.000130894
0.000131262
0.000133977
0.000148775
0.000225983
0.000385802
0.000500799
0.000582618
0.00061884
0.000592341
0.000570125
0.000547064
0.000489779
0.000373406
0.000227885
0.000108701
4.8344e-05
3.21735e-05
7.73358e-05
0.000181153
0.00029254
0.000415776
0.000567062
0.000690025
0.000711673
0.000707987
0.00683389
0.00100859
0.00138492
0.00182132
0.00217537
0.0159195
0.0164674
0.00240992
0.00230224
0.00226083
0.00245648
0.00300233
0.00370316
0.00480939
0.00600762
0.00627645
0.00445785
0.00333356
0.00226432
0.00143624
0.000943216
0.00069986
0.000254145
4.59024e-05
3.21542e-05
3.14058e-05
5.27038e-06
1.26252e-06
1.04508e-06
8.15136e-07
0
0
0
0
0
0
0
0
0
0
0
0
0
0
0
0
0
0
0
0
0
0
0
0
0
0
0
0
0
0
0
0
0
0
0
0
0
0
0
0
0
0
0
0
0.000131101
0.000130205
0.000127387
0.000122402
0.000127122
0.000151674
0.00017863
0.000206209
0.000247356
0.000278142
0.000327512
0.000378942
0.000396514
0.000348226
0.000242012
0.00012952
5.8751e-05
3.16232e-05
3.15283e-05
7.34824e-05
0.00163531
0.000276811
0.000412819
0.000509244
0.000554296
0.00061163
0.000737952
0.000883571
0.00112129
0.00140437
0.00167041
0.0119826
0.00195656
0.00188255
0.00182763
0.00188268
0.00574333
0.00253037
0.00326228
0.00422009
0.00527313
0.0197993
0.00370443
0.00290479
0.00197242
0.00126291
0.000815979
0.00049519
0.000105047
3.76304e-05
3.03002e-05
1.40224e-05
2.56096e-06
1.23856e-06
1.58975e-06
3.03707e-06
2.09398e-07
0
0
0
0
0
0
0
0
0
0
0
0
0
0
0
0
0
0
0
0
0
0
0
0
0
0
0
0
0
0
0
0
0
0
0
0
0
0
0
0
0
0
0
0.00013104
0.000128383
0.000120766
0.000110036
9.07837e-05
7.02716e-05
5.70909e-05
6.50466e-05
9.39824e-05
0.000135125
0.000189837
0.00025494
0.000304137
0.000302887
0.000240043
0.000145909
7.02423e-05
3.6764e-05
3.63245e-05
4.80137e-05
9.39626e-05
0.000203527
0.000348256
0.000409525
0.000470207
0.0050708
0.00553167
0.000773224
0.000916672
0.00109565
0.00128587
0.00146248
0.00149465
0.0014638
0.00146869
0.00161156
0.00187863
0.00223488
0.00264393
0.00372
0.00459948
0.00450416
0.00320874
0.00461216
0.00174774
0.00113287
0.000697114
0.000323231
6.14032e-05
3.45624e-05
1.86452e-05
4.65412e-06
1.22529e-06
9.79811e-07
1.08821e-06
9.39704e-07
1.94448e-07
0
0
0
0
0
0
0
0
0
0
0
0
0
0
0
0
0
0
0
0
0
0
0
0
0
0
0
0
0
0
0
0
0
0
0
0
0
0
0
0
0
0
0
0.000130139
0.000120564
0.000110064
9.08233e-05
6.13493e-05
2.98568e-05
1.62328e-05
2.33481e-05
4.29832e-05
7.34882e-05
0.000119166
0.000178038
0.000233444
0.000258487
0.00023219
0.000162407
8.65297e-05
4.12691e-05
3.01977e-05
5.97966e-05
9.41858e-05
0.00018183
0.0023826
0.000382354
0.000460707
0.000547731
0.000619095
0.000678394
0.000750102
0.000846467
0.000969332
0.00109068
0.00113482
0.00525188
0.00287706
0.00138738
0.00159597
0.00194867
0.0023729
0.00328615
0.00396264
0.00360621
0.00279079
0.00230569
0.00157212
0.00104428
0.000657077
0.000220522
4.79549e-05
3.19011e-05
1.72797e-05
2.48247e-06
5.98136e-07
4.63006e-07
4.50946e-07
1.87112e-07
0
0
0
0
0
0
0
0
0
0
0
0
0
0
0
0
0
0
0
0
0
0
0
0
0
0
0
0
0
0
0
0
0
0
0
0
0
0
0
0
0
0
0
0
0.000125101
0.000104904
8.02263e-05
5.91541e-05
2.91706e-05
8.84111e-06
5.68799e-06
1.15019e-05
2.45838e-05
4.72944e-05
8.37481e-05
0.000132506
0.000183448
0.000220132
0.000221934
0.000178454
0.000108834
5.27403e-05
3.06612e-05
4.93786e-05
9.29917e-05
0.000164017
0.000270447
0.000361115
0.00264004
0.000465694
0.000517495
0.00344198
0.000604384
0.000637608
0.000709063
0.000794727
0.000854592
0.000919821
0.00100208
0.00116905
0.00130259
0.0016861
0.00212446
0.00251815
0.00310601
0.0030636
0.00240053
0.00910826
0.00143869
0.000949697
0.000588958
0.000149442
4.07756e-05
2.49901e-05
6.32522e-06
1.18221e-06
3.10846e-07
1.95052e-07
1.70995e-07
0
0
0
0
0
0
0
0
0
0
0
0
0
0
0
0
0
0
0
0
0
0
0
0
0
0
0
0
0
0
0
0
0
0
0
0
0
0
0
0
0
0
0
0
0
0.000112345
6.71518e-05
3.81491e-05
2.09776e-05
7.697e-06
2.31797e-06
3.49553e-06
8.17863e-06
1.76337e-05
3.57225e-05
6.53653e-05
0.00010548
0.000149396
0.000188828
0.000208543
0.00019041
0.000134703
7.28243e-05
3.56316e-05
3.25155e-05
0.00132726
0.00012669
0.000200257
0.000291013
0.00211073
0.000385487
0.000422312
0.000473756
0.000459268
0.000461827
0.00050553
0.000564786
0.000634355
0.000726678
0.000808401
0.000913406
0.00103669
0.00145297
0.00189631
0.00225314
0.015685
0.00262736
0.00207085
0.00200347
0.00130052
0.000834665
0.000525539
9.91488e-05
3.39472e-05
2.24305e-05
4.57696e-06
9.03462e-07
1.72305e-07
1.97953e-07
0
0
0
0
0
0
0
0
0
0
0
0
0
0
0
0
0
0
0
0
0
0
0
0
0
0
0
0
0
0
0
0
0
0
0
0
0
0
0
0
0
0
0
0
0
0
7.72269e-05
1.83949e-05
6.39105e-06
2.83458e-06
1.82297e-06
2.20514e-06
3.79348e-06
7.23066e-06
1.46587e-05
2.97452e-05
5.52642e-05
8.88185e-05
0.000125898
0.000163446
0.000192556
0.000195178
0.000158771
9.91183e-05
5.00622e-05
3.04488e-05
4.61346e-05
9.36898e-05
0.000133636
0.000220188
0.000282919
0.000312686
0.00279135
0.000343253
0.000327889
0.000321024
0.000355692
0.000399042
0.000493344
0.000573934
0.000607196
0.000657051
0.000828196
0.0012791
0.00166967
0.00200232
0.00236138
0.00226055
0.00183719
0.00176014
0.00117071
0.000730308
0.000407121
6.41054e-05
2.90926e-05
1.53449e-05
5.22933e-06
1.07284e-06
1.67282e-07
0
0
0
0
0
0
0
0
0
0
0
0
0
0
0
0
0
0
0
0
0
0
0
0
0
0
0
0
0
0
0
0
0
0
0
0
0
0
0
0
0
0
0
0
0
0
0
2.9002e-07
2.60524e-06
3.0184e-06
3.28921e-06
3.34411e-06
3.52136e-06
4.38241e-06
6.88563e-06
1.3261e-05
2.69946e-05
4.90076e-05
7.73896e-05
0.000108836
0.000143011
0.000175491
0.000192131
0.000175549
0.000126346
7.21519e-05
3.78803e-05
2.8374e-05
6.47576e-05
0.000120201
0.000171588
0.000218625
0.00288742
0.00238188
0.000232772
0.000218347
0.000213873
0.00235683
0.000287494
0.000399159
0.000420057
0.00039239
0.000465247
0.000678591
0.00114602
0.00143621
0.00175686
0.00204701
0.00191565
0.00167392
0.009816
0.00106735
0.000622069
0.000322222
5.10874e-05
2.22248e-05
1.00589e-05
8.17877e-06
1.84484e-06
1.78597e-07
0
0
0
0
0
0
0
0
0
0
0
0
0
0
0
0
0
0
0
0
0
0
0
0
0
0
0
0
0
0
0
0
0
0
0
0
0
0
0
0
0
0
0
0
0
0
0
1.14305e-05
1.17113e-05
1.00405e-05
8.25288e-06
6.31368e-06
4.90648e-06
4.76063e-06
6.65408e-06
1.23172e-05
2.40258e-05
4.16681e-05
6.48882e-05
9.18899e-05
0.000121681
0.000153489
0.000179594
0.000185969
0.0001622
0.000116133
7.04599e-05
3.95604e-05
3.33245e-05
6.38109e-05
0.000107839
0.000122419
0.000124954
0.00011813
0.000110011
0.000100402
9.70925e-05
0.000113374
0.000162238
0.000140145
0.000127816
0.00015854
0.000246073
0.000495659
0.000970795
0.00111138
0.00144091
0.00164629
0.0014502
0.0108286
0.00135807
0.000879069
0.000417491
0.000110125
3.00209e-05
7.10661e-06
4.45568e-06
4.90262e-06
2.07716e-06
1.83336e-07
0
0
0
0
0
0
0
0
0
0
0
0
0
0
0
0
0
0
0
0
0
0
0
0
0
0
0
0
0
0
0
0
0
0
0
0
0
0
0
0
0
0
0
0
0
0
0
1.61851e-06
2.80643e-06
3.61144e-06
3.77764e-06
3.4987e-06
3.27992e-06
3.74419e-06
5.78321e-06
1.09486e-05
2.06629e-05
3.44126e-05
5.06325e-05
7.23197e-05
9.73805e-05
0.000124113
0.000149592
0.000165522
0.000162778
0.000138429
0.000100942
6.4317e-05
3.90295e-05
2.68512e-05
3.06709e-05
4.30239e-05
4.86203e-05
4.66266e-05
3.91755e-05
2.82897e-05
1.97647e-05
1.89182e-05
2.23178e-05
1.21711e-05
2.12883e-05
5.19172e-05
0.000133817
0.000384814
0.000699759
0.000822875
0.00110304
0.00115295
0.00888672
0.00937526
0.00108428
0.000584657
0.000232505
4.92943e-05
1.24719e-05
2.95513e-06
1.3359e-06
8.30899e-07
1.67356e-07
0
0
0
0
0
0
0
0
0
0
0
0
0
0
0
0
0
0
0
0
0
0
0
0
0
0
0
0
0
0
0
0
0
0
0
0
0
0
0
0
0
0
0
0
0
0
0
0
2.38965e-07
7.03982e-07
1.13169e-06
1.46025e-06
1.7059e-06
2.06608e-06
2.94975e-06
5.11393e-06
9.73167e-06
1.76404e-05
2.84454e-05
4.116e-05
5.60713e-05
7.73512e-05
9.97808e-05
0.00012086
0.000136328
0.000140248
0.000129566
0.000106396
7.77005e-05
5.12359e-05
3.11296e-05
1.90826e-05
1.31958e-05
9.95217e-06
6.99026e-06
3.8535e-06
3.38876e-06
2.15812e-06
2.11753e-06
3.75623e-06
4.39933e-06
6.79583e-06
2.51961e-05
9.44711e-05
0.000353956
0.000435386
0.000609223
0.000788254
0.000856219
0.00115167
0.001157
0.000762149
0.000359343
0.000111577
3.07944e-05
6.10926e-06
1.46708e-06
3.75169e-07
1.83268e-07
0
0
0
0
0
0
0
0
0
0
0
0
0
0
0
0
0
0
0
0
0
0
0
0
0
0
0
0
0
0
0
0
0
0
0
0
0
0
0
0
0
0
0
0
0
0
0
0
0
5.35971e-08
1.88055e-07
3.90539e-07
6.30022e-07
9.8909e-07
1.59424e-06
2.72866e-06
4.98581e-06
9.08201e-06
1.54527e-05
2.38633e-05
3.39015e-05
4.58593e-05
6.13133e-05
8.12249e-05
9.92528e-05
0.000112687
0.000118214
0.000113724
0.000100098
8.05085e-05
5.98544e-05
4.12721e-05
2.58564e-05
1.43159e-05
6.98843e-06
3.95257e-06
3.3783e-06
2.46168e-06
1.60088e-06
1.2761e-06
9.31926e-07
2.26682e-06
3.87735e-06
1.98256e-05
9.34542e-05
0.000235568
0.000302265
0.000436452
0.000598931
0.000820858
0.0011237
0.000885733
0.000512091
0.000232141
5.75225e-05
1.92207e-05
4.87836e-06
1.35844e-06
2.20243e-07
0
0
0
0
0
0
0
0
0
0
0
0
0
0
0
0
0
0
0
0
0
0
0
0
0
0
0
0
0
0
0
0
0
0
0
0
0
0
0
0
0
0
0
0
0
0
0
0
0
0
8.13576e-10
7.78822e-08
1.62558e-07
4.01703e-07
8.73849e-07
1.67053e-06
3.10786e-06
5.45719e-06
9.09731e-06
1.41898e-05
2.07103e-05
2.86039e-05
3.85107e-05
5.15013e-05
6.76998e-05
8.42983e-05
9.7065e-05
0.000103571
0.000103193
9.61268e-05
8.3345e-05
6.70198e-05
4.9552e-05
3.28597e-05
1.89179e-05
9.58461e-06
5.51757e-06
3.03975e-06
1.78939e-06
1.01231e-06
6.6576e-07
5.31614e-07
1.76584e-06
4.16771e-06
2.42978e-05
0.000111314
0.000134584
0.000231
0.000394801
0.000633677
0.000981816
0.00104378
0.000675596
0.000308885
9.64252e-05
3.18205e-05
6.85053e-06
3.87784e-06
1.97582e-06
1.72434e-07
0
0
0
0
0
0
0
0
0
0
0
0
0
0
0
0
0
0
0
0
0
0
0
0
0
0
0
0
0
0
0
0
0
0
0
0
0
0
0
0
0
0
0
0
0
0
0
0
0
0
0
2.27116e-10
1.62493e-07
4.16669e-07
1.03299e-06
2.14386e-06
3.7636e-06
6.14334e-06
9.26141e-06
1.33802e-05
1.85161e-05
2.65732e-05
3.81162e-05
5.42705e-05
7.16932e-05
8.96395e-05
0.000103265
0.000110604
0.000110811
0.000104014
9.11767e-05
7.40854e-05
5.49317e-05
3.60144e-05
2.01219e-05
9.97295e-06
5.56446e-06
2.58744e-06
1.32051e-06
6.66982e-07
4.00126e-07
9.70146e-07
2.56669e-06
1.13004e-05
3.46584e-05
5.40201e-05
0.000107209
0.000225585
0.000506171
0.000767379
0.00108366
0.000761695
0.000416796
0.000176886
4.40485e-05
1.13572e-05
3.56241e-06
1.60547e-06
3.93511e-07
0
0
0
0
0
0
0
0
0
0
0
0
0
0
0
0
0
0
0
0
0
0
0
0
0
0
0
0
0
0
0
0
0
0
0
0
0
0
0
0
0
0
0
0
0
0
0
0
0
0
0
0
2.22301e-09
1.5981e-07
4.56692e-07
1.10173e-06
2.04146e-06
3.3974e-06
5.21984e-06
7.89367e-06
1.18729e-05
2.02484e-05
3.2603e-05
4.77625e-05
6.79724e-05
8.89021e-05
0.000107414
0.000121537
0.000128543
0.000127179
0.00011768
0.000101484
8.06692e-05
5.79086e-05
3.60959e-05
1.86527e-05
8.50739e-06
4.57034e-06
2.02697e-06
1.00572e-06
4.65192e-07
3.19781e-07
1.756e-06
4.18712e-06
1.09462e-05
2.20393e-05
5.07096e-05
0.000133545
0.000288266
0.000604067
0.000754009
0.000778976
0.000515451
0.000238363
6.97469e-05
2.65102e-05
4.66775e-06
1.57417e-06
4.22167e-07
1.91299e-07
0
0
0
0
0
0
0
0
0
0
0
0
0
0
0
0
0
0
0
0
0
0
0
0
0
0
0
0
0
0
0
0
0
0
0
0
0
0
0
0
0
0
0
0
0
0
0
0
0
0
0
0
0
7.83993e-08
1.33926e-07
2.32842e-07
2.96145e-07
4.38935e-07
1.07329e-06
3.3044e-06
1.11667e-05
2.72193e-05
4.88979e-05
7.16502e-05
9.66303e-05
0.00012223
0.000139276
0.000151085
0.000155289
0.000149728
0.000134866
0.000112852
8.65775e-05
5.93099e-05
3.45098e-05
1.59432e-05
6.2322e-06
3.2183e-06
1.50698e-06
7.51899e-07
2.37178e-07
1.10289e-06
2.83866e-06
9.67227e-06
2.09487e-05
3.47206e-05
7.87429e-05
0.000216197
0.000372312
0.00065146
0.000591881
0.000497874
0.000275084
0.000112557
3.9326e-05
1.73952e-05
3.85533e-06
1.4738e-06
1.86488e-07
0
0
0
0
0
0
0
0
0
0
0
0
0
0
0
0
0
0
0
0
0
0
0
0
0
0
0
0
0
0
0
0
0
0
0
0
0
0
0
0
0
0
0
0
0
0
0
0
0
0
0
0
0
0
0
3.15338e-08
3.86481e-08
1.85084e-08
3.01378e-08
3.30608e-08
5.20284e-07
9.60908e-06
3.89483e-05
7.96725e-05
0.000116553
0.000148012
0.000175645
0.00018652
0.000191514
0.000188951
0.000176197
0.000153788
0.00012454
9.21399e-05
6.03512e-05
3.2893e-05
1.34423e-05
4.03152e-06
1.52534e-06
6.52272e-07
1.69685e-07
9.62622e-07
4.07654e-06
1.30985e-05
3.29893e-05
5.74498e-05
7.52784e-05
0.000142284
0.000293528
0.000415001
0.000557944
0.000409459
0.000249101
0.000135676
4.46772e-05
2.29361e-05
5.06008e-06
1.91767e-06
4.26512e-07
0
0
0
0
0
0
0
0
0
0
0
0
0
0
0
0
0
0
0
0
0
0
0
0
0
0
0
0
0
0
0
0
0
0
0
0
0
0
0
0
0
0
0
0
0
0
0
0
0
0
0
0
0
0
0
0
1.65075e-08
1.3568e-08
2.3947e-08
4.27777e-08
1.72942e-07
1.10433e-06
7.90788e-06
4.82672e-05
0.000116424
0.000175939
0.000219564
0.000246997
0.000246746
0.000239716
0.000226618
0.000204491
0.000173377
0.00013664
9.84905e-05
6.28118e-05
3.31445e-05
1.2717e-05
2.87996e-06
3.8296e-07
1.24031e-07
1.01951e-06
5.79269e-06
1.87379e-05
4.91979e-05
9.75559e-05
0.000149464
0.000151558
0.000247354
0.000360986
0.000391819
0.00040561
0.000238666
0.000129702
4.99615e-05
2.32202e-05
5.84054e-06
2.41365e-06
6.39431e-07
1.60251e-07
0
0
0
0
0
0
0
0
0
0
0
0
0
0
0
0
0
0
0
0
0
0
0
0
0
0
0
0
0
0
0
0
0
0
0
0
0
0
0
0
0
0
0
0
0
0
0
0
0
0
0
0
0
0
0
0
0
1.7085e-08
2.06985e-08
3.98039e-08
2.07766e-07
1.29277e-06
6.69207e-06
4.28105e-05
0.000136381
0.000222829
0.00028898
0.000321102
0.000311175
0.00029013
0.000264782
0.000232719
0.000193281
0.000150092
0.000107502
6.89871e-05
3.75168e-05
1.57865e-05
4.71952e-06
1.48334e-06
2.58614e-06
8.89917e-06
2.54456e-05
6.3234e-05
0.000137482
0.000214374
0.000327624
0.000252725
0.000340582
0.000374603
0.000327248
0.000254033
0.000143133
5.21784e-05
2.58672e-05
5.67745e-06
2.53638e-06
7.27933e-07
1.55229e-07
0
0
0
0
0
0
0
0
0
0
0
0
0
0
0
0
0
0
0
0
0
0
0
0
0
0
0
0
0
0
0
0
0
0
0
0
0
0
0
0
0
0
0
0
0
0
0
0
0
0
0
0
0
0
0
0
0
0
0
5.09449e-08
4.4653e-08
9.92513e-08
9.84178e-07
5.9096e-06
2.53791e-05
0.000120357
0.000242483
0.000332582
0.000379097
0.000369302
0.000337292
0.000300933
0.000260003
0.000214083
0.000166417
0.000121427
8.16371e-05
4.90042e-05
2.54408e-05
1.30683e-05
1.03423e-05
1.56168e-05
3.29928e-05
7.25961e-05
0.000148427
0.000300072
0.000346439
0.0003893
0.000330467
0.000335594
0.000305232
0.000211405
0.000138909
6.00584e-05
3.14692e-05
1.00029e-05
2.54536e-06
8.29186e-07
1.64288e-07
0
0
0
0
0
0
0
0
0
0
0
0
0
0
0
0
0
0
0
0
0
0
0
0
0
0
0
0
0
0
0
0
0
0
0
0
0
0
0
0
0
0
0
0
0
0
0
0
0
0
0
0
0
0
0
0
0
0
0
0
0
0
6.89142e-08
4.39657e-07
3.62141e-06
1.62528e-05
7.23129e-05
0.000214783
0.000326104
0.000401158
0.000410256
0.000376324
0.000332824
0.00028592
0.000236234
0.000187064
0.000142536
0.000104097
7.2245e-05
4.56482e-05
3.23782e-05
3.40635e-05
4.6749e-05
8.14244e-05
0.000151689
0.000260828
0.000411069
0.000448688
0.000385883
0.000359281
0.000278474
0.000194717
0.000112548
5.70736e-05
3.07569e-05
1.22417e-05
3.44266e-06
1.39465e-06
2.67421e-07
0
0
0
0
0
0
0
0
0
0
0
0
0
0
0
0
0
0
0
0
0
0
0
0
0
0
0
0
0
0
0
0
0
0
0
0
0
0
0
0
0
0
0
0
0
0
0
0
0
0
0
0
0
0
0
0
0
0
0
0
0
0
0
7.75743e-08
1.56041e-07
1.64098e-06
8.92338e-06
3.04041e-05
0.000139679
0.000277799
0.000382734
0.000422557
0.000401615