/*--------------------------------*- C++ -*----------------------------------*\
  =========                 |
  \\      /  F ield         | OpenFOAM: The Open Source CFD Toolbox
   \\    /   O peration     | Website:  https://openfoam.org
    \\  /    A nd           | Version:  6
     \\/     M anipulation  |
\*---------------------------------------------------------------------------*/
FoamFile
{
    version     2.0;
    format      ascii;
    class       volScalarField;
    location    "0.005";
    object      C2H5;
}
// * * * * * * * * * * * * * * * * * * * * * * * * * * * * * * * * * * * * * //

dimensions      [0 0 0 0 0 0 0];

internalField   nonuniform List<scalar> 
8000
(
8.08708e-22
2.51866e-17
1.6569e-16
1.76487e-15
2.72748e-14
4.37305e-13
4.82752e-12
2.92431e-11
1.02805e-10
2.58439e-10
5.0927e-10
8.4741e-10
1.29958e-09
1.71053e-09
1.72072e-09
1.6689e-09
2.26979e-09
4.96029e-09
1.54398e-08
6.65759e-08
2.91356e-07
1.16507e-06
1.98156e-06
2.24906e-06
2.21866e-06
2.37904e-06
2.57942e-06
2.31425e-06
1.80058e-06
1.33008e-06
1.08972e-06
1.10532e-06
1.22788e-06
1.49298e-06
1.59406e-06
1.69586e-06
1.74492e-06
1.88129e-06
1.88962e-06
1.92344e-06
1.99251e-06
1.95609e-06
1.75445e-06
1.55189e-06
1.38023e-06
7.20099e-07
9.75943e-07
1.69113e-06
2.28877e-06
9.26998e-07
1.24501e-07
1.18936e-08
1.62634e-10
0
0
0
0
0
0
0
0
0
0
0
0
0
0
0
0
0
0
0
0
0
0
0
0
0
0
0
0
0
0
0
0
0
0
0
0
0
0
0
0
0
0
0
0
0
0
0
1.30191e-20
2.34679e-16
6.52016e-16
6.06263e-15
6.51319e-14
9.82768e-13
1.20238e-11
8.6918e-11
3.68484e-10
9.69991e-10
1.84578e-09
2.77239e-09
3.89171e-09
5.47975e-09
5.04617e-09
3.75319e-09
4.28684e-09
8.65015e-09
2.18196e-08
7.54812e-08
3.17841e-07
1.56821e-06
3.52388e-06
2.10163e-06
2.3754e-06
2.85149e-06
2.91745e-06
2.4456e-06
1.8922e-06
1.31788e-06
1.05721e-06
1.08275e-06
1.22467e-06
1.50588e-06
1.61333e-06
1.78011e-06
1.74689e-06
1.95237e-06
1.88538e-06
2.03396e-06
2.06976e-06
1.95226e-06
1.752e-06
1.55252e-06
1.39489e-06
7.90084e-07
1.11705e-06
1.78374e-06
2.88807e-06
1.17655e-06
2.01164e-07
1.85162e-08
6.96835e-11
0
0
0
0
0
0
0
0
0
0
0
0
0
0
0
0
0
0
0
0
0
0
0
0
0
0
0
0
0
0
0
0
0
0
0
0
0
0
0
0
0
0
0
0
0
0
0
9.44477e-17
4.16307e-08
9.08123e-17
1.04466e-07
3.0541e-13
3.57001e-12
3.98904e-11
3.77848e-10
5.60443e-07
6.95707e-09
1.36842e-08
1.7799e-08
1.95122e-08
2.81615e-08
1.53371e-06
1.22323e-06
1.2077e-08
2.49761e-08
4.66178e-08
9.85937e-08
2.77032e-07
9.62275e-07
2.11728e-06
2.25716e-06
2.284e-06
2.51189e-06
4.30931e-06
2.43172e-06
1.65664e-06
1.13393e-06
9.57679e-07
1.0431e-06
1.22877e-06
1.5384e-06
1.65383e-06
1.76052e-06
1.83223e-06
1.94974e-06
1.96029e-06
2.02437e-06
2.06165e-06
2.02391e-06
1.82277e-06
1.62614e-06
1.32066e-06
8.87369e-07
1.37098e-05
1.74749e-06
4.90743e-06
7.49554e-07
1.18651e-07
1.07298e-08
2.73509e-24
0
0
0
0
0
0
0
0
0
0
0
0
0
0
0
0
0
0
0
0
0
0
0
0
0
0
0
0
0
0
0
0
0
0
0
0
0
0
0
0
0
0
0
0
0
0
0
1.3405e-20
3.84317e-15
1.23234e-13
1.16858e-12
5.66639e-12
1.76226e-11
1.06912e-10
8.99626e-10
7.20984e-09
1.4841e-06
1.07334e-07
1.18246e-07
1.08006e-07
1.74413e-06
2.10094e-08
1.6572e-08
2.79278e-08
9.48775e-08
2.33449e-06
1.74391e-07
3.23271e-07
4.81531e-06
1.79216e-06
2.09551e-06
2.25172e-06
1.94027e-06
1.83842e-06
1.62529e-06
1.2486e-06
4.02297e-06
9.07286e-07
1.04638e-06
1.26329e-06
1.59132e-06
1.71216e-06
1.78714e-06
1.91685e-06
1.92244e-06
1.94751e-06
2.09475e-06
2.0511e-06
2.01464e-06
1.81726e-06
1.62784e-06
1.34315e-06
8.43439e-07
1.14459e-06
1.28274e-06
1.04419e-06
3.53543e-07
4.94659e-08
4.14551e-09
1.35377e-26
0
0
0
0
0
0
0
0
0
0
0
0
0
0
0
0
0
0
0
0
0
0
0
0
0
0
0
0
0
0
0
0
0
0
0
0
0
0
0
0
0
0
0
0
0
0
0
1.90153e-18
4.52477e-15
1.82277e-07
1.30317e-11
3.50267e-07
9.53943e-11
2.39764e-10
3.51795e-07
1.18599e-08
1.85595e-06
7.98148e-06
6.761e-06
4.12472e-06
7.97248e-08
3.2673e-08
1.55917e-06
7.41973e-08
2.84133e-06
2.89294e-07
3.4095e-07
3.90944e-06
4.99551e-06
1.46588e-06
1.07957e-05
1.1875e-05
1.9414e-06
1.60821e-06
2.4622e-06
1.7337e-06
1.12649e-06
9.55542e-07
1.11021e-06
1.33019e-06
1.54417e-06
1.83872e-06
4.07729e-06
1.97682e-06
1.99145e-06
2.13462e-06
2.08016e-06
2.03917e-06
2.00415e-06
1.90571e-06
1.70187e-06
1.36713e-06
8.27401e-07
1.06199e-06
9.77523e-07
5.61325e-07
1.56776e-07
2.3888e-08
6.24969e-10
0
0
0
0
0
0
0
0
0
0
0
0
0
0
0
0
0
0
0
0
0
0
0
0
0
0
0
0
0
0
0
0
0
0
0
0
0
0
0
0
0
0
0
0
0
0
0
0
6.9177e-17
7.82377e-16
4.43474e-12
2.12649e-07
5.001e-10
2.84904e-07
4.53676e-10
1.18387e-09
5.52981e-09
3.18962e-08
1.11813e-07
1.16467e-07
6.98984e-08
3.56742e-08
3.29358e-08
6.61443e-08
1.86045e-07
4.04218e-06
7.51228e-07
5.62895e-06
8.17904e-07
6.03194e-06
1.51779e-06
1.13309e-05
1.171e-05
2.00896e-06
1.62139e-06
4.77367e-06
4.63594e-06
9.60964e-07
9.24105e-07
1.20009e-06
4.08444e-06
1.59965e-06
1.8055e-06
1.96335e-06
1.95985e-06
2.09599e-06
2.11171e-06
2.06296e-06
2.02389e-06
1.99195e-06
3.90632e-06
1.70235e-06
1.39603e-06
8.77562e-07
1.14031e-06
9.5626e-07
4.0197e-07
1.10078e-07
2.912e-08
6.12234e-09
0
0
0
0
0
0
0
0
0
0
0
0
0
0
0
0
0
0
0
0
0
0
0
0
0
0
0
0
0
0
0
0
0
0
0
0
0
0
0
0
0
0
0
0
0
0
0
0
4.817e-17
1.15849e-14
1.02929e-12
1.21165e-11
6.41902e-11
1.72775e-10
3.59628e-07
2.03945e-09
5.49865e-09
1.15623e-08
9.47535e-07
1.46542e-06
1.35163e-06
3.30813e-08
5.97714e-08
1.44173e-07
3.08255e-07
7.39543e-07
9.02896e-06
1.3095e-06
7.79349e-06
1.32752e-06
8.87445e-06
2.35977e-06
2.37292e-06
1.92852e-06
1.78125e-06
1.4027e-06
1.07713e-06
9.21441e-07
1.02122e-06
1.2954e-06
1.51743e-06
1.65704e-06
1.80816e-06
2.02563e-06
2.02156e-06
2.15254e-06
2.08429e-06
3.8917e-06
2.00511e-06
1.97699e-06
1.95861e-06
1.70036e-06
1.43097e-06
9.89805e-07
1.31488e-06
1.24706e-06
4.71437e-07
1.13237e-07
4.04036e-08
8.73778e-09
0
0
0
0
0
0
0
0
0
0
0
0
0
0
0
0
0
0
0
0
0
0
0
0
0
0
0
0
0
0
0
0
0
0
0
0
0
0
0
0
0
0
0
0
0
0
0
0
5.03188e-08
8.11937e-08
1.19471e-12
1.77671e-11
7.33455e-11
3.0745e-07
1.79913e-09
1.17946e-08
1.53375e-06
2.42503e-08
2.14017e-08
2.26621e-08
3.19468e-08
8.50645e-08
2.43549e-06
3.30036e-06
5.42076e-06
8.72074e-06
2.31095e-06
1.1137e-05
1.81832e-06
1.83677e-06
9.922e-06
2.40883e-06
2.13648e-06
1.1142e-05
1.95622e-06
1.49577e-06
1.09884e-06
1.07762e-06
1.32675e-06
1.44226e-06
1.55981e-06
1.71703e-06
1.89432e-06
1.99555e-06
2.12224e-06
2.11684e-06
2.05118e-06
2.01219e-06
1.98258e-06
1.96055e-06
1.94417e-06
1.76089e-06
1.47228e-06
1.13973e-06
1.53281e-06
3.46285e-06
4.89626e-07
1.12619e-08
5.35627e-09
6.15638e-09
0
0
0
0
0
0
0
0
0
0
0
0
0
0
0
0
0
0
0
0
0
0
0
0
0
0
0
0
0
0
0
0
0
0
0
0
0
0
0
0
0
0
0
0
0
0
0
0
5.05503e-08
1.1339e-07
6.37117e-12
1.6467e-10
2.49378e-07
1.1686e-09
5.08872e-07
5.22527e-08
3.33863e-06
9.20524e-08
1.75062e-06
1.57119e-06
8.5432e-08
1.59389e-07
2.5858e-07
3.92151e-06
6.19999e-06
1.0831e-05
3.18407e-06
2.49807e-06
2.29723e-06
9.92138e-06
2.29219e-06
1.09872e-05
1.03373e-05
2.33175e-06
2.02706e-06
1.49964e-06
1.16896e-06
1.39679e-06
3.03101e-06
3.13718e-06
1.69523e-06
1.81322e-06
2.05297e-06
2.0503e-06
2.17104e-06
2.07717e-06
2.0129e-06
1.97911e-06
3.89118e-06
3.87768e-06
1.92968e-06
1.75703e-06
4.44267e-06
2.68561e-06
1.80121e-06
1.38577e-06
4.2154e-07
7.2775e-08
3.33002e-08
4.35152e-09
0
0
0
0
0
0
0
0
0
0
0
0
0
0
0
0
0
0
0
0
0
0
0
0
0
0
0
0
0
0
0
0
0
0
0
0
0
0
0
0
0
0
0
0
0
0
0
0
1.24941e-17
1.03272e-07
1.69809e-07
2.49355e-07
8.05765e-10
4.7339e-07
1.37115e-08
5.02521e-08
1.25818e-07
2.12699e-06
1.61856e-07
2.22216e-07
2.65935e-06
3.62436e-06
6.42179e-06
5.1875e-06
9.08062e-07
2.07354e-06
2.38354e-06
2.59384e-06
2.58275e-06
2.62983e-06
2.52787e-06
2.48779e-06
2.42837e-06
2.25479e-06
1.87945e-06
1.41401e-06
1.19109e-06
4.3151e-06
1.60951e-06
1.69537e-06
3.96615e-06
1.83129e-06
2.02833e-06
4.03089e-06
2.12891e-06
2.03292e-06
1.97078e-06
1.94208e-06
3.90399e-06
1.92011e-06
1.91455e-06
1.75214e-06
1.43159e-06
1.14468e-06
1.41464e-05
1.22326e-06
3.54528e-07
6.05065e-08
3.37612e-08
4.30876e-09
0
0
0
0
0
0
0
0
0
0
0
0
0
0
0
0
0
0
0
0
0
0
0
0
0
0
0
0
0
0
0
0
0
0
0
0
0
0
0
0
0
0
0
0
0
0
0
0
6.32564e-08
1.35427e-11
2.02062e-10
1.23481e-09
5.76253e-09
9.40427e-07
1.4354e-06
2.07653e-06
3.23167e-07
4.02979e-07
5.12814e-07
3.66112e-06
7.43397e-07
4.80135e-06
8.95222e-07
9.52962e-07
1.21738e-06
1.33827e-05
6.30803e-06
3.04806e-06
2.57506e-06
7.93509e-06
2.41401e-06
6.19707e-06
7.9795e-06
2.04181e-06
1.70422e-06
1.39779e-06
1.36299e-06
1.58839e-06
1.69395e-06
1.75651e-06
1.86482e-06
1.99611e-06
2.07129e-06
4.04235e-06
2.08216e-06
4.00876e-06
1.92639e-06
1.90114e-06
1.89475e-06
1.89623e-06
1.89956e-06
1.68376e-06
1.40329e-06
1.15247e-06
1.71683e-06
1.06802e-06
2.96942e-07
7.76602e-09
2.61612e-08
4.30967e-09
0
0
0
0
0
0
0
0
0
0
0
0
0
0
0
0
0
0
0
0
0
0
0
0
0
0
0
0
0
0
0
0
0
0
0
0
0
0
0
0
0
0
0
0
0
0
0
0
7.55541e-13
1.07043e-09
1.1573e-08
1.19981e-06
1.17904e-07
2.01012e-06
2.56719e-06
6.1236e-07
1.23212e-06
1.27883e-06
1.34699e-06
1.41361e-06
1.62807e-06
7.46038e-06
1.54129e-06
1.57338e-06
1.78474e-06
1.30303e-05
7.00687e-06
6.40208e-06
2.41477e-06
2.30465e-06
2.1616e-06
2.16042e-06
2.00763e-06
1.80028e-06
1.60907e-06
4.79673e-06
1.64241e-06
3.25438e-06
1.76217e-06
1.91018e-06
1.96248e-06
4.20618e-06
2.0138e-06
2.11127e-06
4.04084e-06
1.93704e-06
1.87982e-06
1.8582e-06
1.85852e-06
1.8757e-06
3.92018e-06
1.677e-06
1.36785e-06
2.61676e-06
1.12269e-05
2.06022e-06
2.40787e-07
6.80408e-08
3.28976e-09
4.97224e-09
8.48031e-11
0
0
0
0
0
0
0
0
0
0
0
0
0
0
0
0
0
0
0
0
0
0
0
0
0
0
0
0
0
0
0
0
0
0
0
0
0
0
0
0
0
0
0
0
0
0
0
1.40503e-10
1.16484e-07
3.58724e-07
3.05742e-06
4.25052e-06
5.23982e-06
1.26868e-06
8.34703e-06
2.20026e-06
9.23837e-06
7.92847e-06
7.50525e-06
2.02273e-06
7.84365e-06
2.08306e-06
2.17299e-06
1.15823e-05
2.5396e-06
2.5526e-06
5.81017e-06
2.19032e-06
2.0569e-06
2.03017e-06
3.48055e-06
1.85025e-06
1.67369e-06
1.57083e-06
4.22233e-06
1.65832e-06
1.79404e-06
1.87607e-06
1.93596e-06
2.11357e-06
1.98612e-06
1.94412e-06
2.03201e-06
4.0951e-06
4.08746e-06
1.83286e-06
1.81506e-06
1.82334e-06
3.91982e-06
3.94028e-06
1.66802e-06
1.32023e-06
4.11865e-06
1.70049e-06
1.81326e-06
1.90679e-07
6.60379e-08
1.51484e-08
5.03084e-09
3.33283e-09
3.13191e-10
0
0
0
0
0
0
0
0
0
0
0
0
0
0
0
0
0
0
0
0
0
0
0
0
0
0
0
0
0
0
0
0
0
0
0
0
0
0
0
0
0
0
0
0
0
0
6.67578e-08
5.74265e-06
6.44527e-06
7.18931e-06
1.95778e-06
9.58027e-06
1.03418e-05
2.27547e-06
2.29692e-06
2.20439e-06
2.00518e-06
1.91086e-06
1.90901e-06
1.9644e-06
2.079e-06
2.27856e-06
2.47207e-06
8.18091e-06
2.41478e-06
3.66582e-06
3.43158e-06
1.99848e-06
1.93258e-06
1.93956e-06
3.99149e-06
1.75376e-06
4.21393e-06
1.7521e-06
1.85672e-06
1.96692e-06
2.02388e-06
2.10964e-06
4.19692e-06
1.99237e-06
1.86551e-06
1.86687e-06
1.88153e-06
4.1537e-06
1.78503e-06
1.77446e-06
1.78877e-06
1.82885e-06
1.78359e-06
1.58416e-06
1.36968e-06
1.08091e-06
1.51526e-06
5.91086e-07
1.4638e-07
5.17802e-08
1.10793e-08
5.12291e-09
4.11634e-09
3.14152e-09
1.89931e-10
0
0
0
0
0
0
0
0
0
0
0
0
0
0
0
0
0
0
0
0
0
0
0
0
0
0
0
0
0
0
0
0
0
0
0
0
0
0
0
0
0
0
0
0
0
6.42049e-06
3.08571e-06
4.34663e-06
5.27294e-06
1.91275e-06
4.03845e-06
2.20165e-06
6.62269e-06
3.77928e-06
2.42355e-06
4.7876e-06
2.28604e-06
5.35124e-06
1.9686e-06
4.85427e-06
2.03667e-06
2.21956e-06
2.31177e-06
2.19908e-06
2.62533e-06
3.44637e-06
2.9663e-06
1.84104e-06
1.88583e-06
1.92091e-06
4.77275e-06
1.85928e-06
1.81013e-06
1.91203e-06
4.2792e-06
4.24341e-06
4.22715e-06
4.18872e-06
4.21636e-06
4.23106e-06
4.23463e-06
1.63588e-06
1.59754e-06
4.18311e-06
1.65941e-06
4.04759e-06
1.80559e-06
4.0063e-06
4.23511e-06
1.29805e-06
9.977e-06
1.3089e-06
4.87723e-07
1.26732e-07
4.63265e-08
9.72151e-09
5.0524e-09
4.33645e-09
3.5659e-09
2.28849e-09
0
0
0
0
0
0
0
0
0
0
0
0
0
0
0
0
0
0
0
0
0
0
0
0
0
0
0
0
0
0
0
0
0
0
0
0
0
0
0
0
0
0
0
0
0
3.20711e-06
1.86442e-06
2.20102e-06
3.99034e-06
2.55457e-06
2.905e-06
1.84269e-06
1.97616e-06
3.03088e-06
2.94648e-06
3.98255e-06
3.97256e-06
2.56741e-06
2.13717e-06
1.77094e-06
1.62436e-06
1.72574e-06
1.87852e-06
1.90652e-06
2.61704e-06
1.77571e-06
1.68239e-06
1.77166e-06
1.96515e-06
4.29239e-06
1.95482e-06
1.93432e-06
1.89164e-06
1.94613e-06
2.0189e-06
4.23485e-06
2.0059e-06
1.85649e-06
1.70331e-06
1.60537e-06
4.29903e-06
4.30964e-06
1.46153e-06
4.2382e-06
4.16959e-06
1.58021e-06
4.00316e-06
4.0617e-06
1.46552e-06
1.28599e-06
1.22413e-06
1.12027e-06
3.90051e-07
1.05016e-07
4.13738e-08
8.56574e-09
4.55545e-09
4.05254e-09
3.71385e-09
2.97599e-09
0
0
0
0
0
0
0
0
0
0
0
0
0
0
0
0
0
0
0
0
0
0
0
0
0
0
0
0
0
0
0
0
0
0
0
0
0
0
0
0
0
0
0
0
0
3.11233e-08
1.64048e-06
1.56547e-06
2.17359e-06
2.67275e-06
2.25691e-06
1.67778e-06
1.7514e-06
2.43155e-06
4.19579e-06
3.6552e-06
3.99253e-06
4.14936e-06
2.29351e-06
1.7663e-06
1.41844e-06
1.36099e-06
1.48079e-06
1.68815e-06
1.64821e-06
1.49992e-06
1.48852e-06
1.64679e-06
3.87779e-06
3.03024e-06
1.88935e-06
3.52326e-06
3.88901e-06
3.99809e-06
4.09361e-06
1.71311e-06
1.76094e-06
1.64165e-06
1.59205e-06
4.30238e-06
4.31226e-06
4.31183e-06
1.36662e-06
1.46557e-06
4.23819e-06
4.14612e-06
1.60071e-06
4.16374e-06
1.458e-06
3.2788e-06
1.17854e-05
3.08397e-06
3.10295e-07
9.41179e-08
3.55872e-08
6.09601e-09
1.02962e-09
2.47902e-11
2.81174e-10
8.11799e-13
0
0
0
0
0
0
0
0
0
0
0
0
0
0
0
0
0
0
0
0
0
0
0
0
0
0
0
0
0
0
0
0
0
0
0
0
0
0
0
0
0
0
0
0
0
1.72063e-07
1.37734e-06
8.13188e-07
1.11211e-06
1.81545e-06
4.14933e-06
1.23643e-06
1.24255e-06
1.85512e-06
2.06812e-06
2.51357e-06
4.08184e-06
4.08862e-06
4.71073e-06
1.43913e-06
1.20866e-06
2.31181e-06
1.23341e-06
2.57189e-06
1.37992e-06
1.27928e-06
3.18961e-06
1.41203e-06
1.51475e-06
1.68222e-06
1.67979e-06
1.63325e-06
1.53255e-06
1.50666e-06
1.51727e-06
1.52803e-06
4.30164e-06
4.3048e-06
1.34251e-06
4.3122e-06
1.14737e-06
1.13763e-06
1.18205e-06
1.29582e-06
1.46587e-06
4.21266e-06
4.15235e-06
1.52937e-06
1.30932e-06
3.25776e-06
1.02552e-05
7.88621e-07
2.56561e-07
8.32528e-08
1.51295e-08
8.03318e-10
0
0
0
0
0
0
0
0
0
0
0
0
0
0
0
0
0
0
0
0
0
0
0
0
0
0
0
0
0
0
0
0
0
0
0
0
0
0
0
0
0
0
0
0
0
0
0
0
0
1.9446e-07
8.51686e-07
8.60787e-07
4.05394e-07
5.81497e-07
6.38002e-07
4.71335e-07
5.05896e-07
8.26382e-07
9.98243e-07
1.03381e-06
9.52856e-07
3.65188e-06
2.6776e-06
6.5063e-07
6.66595e-07
7.66783e-07
9.76559e-07
1.13521e-06
1.14931e-06
1.10174e-06
1.09592e-06
1.15553e-06
1.2736e-06
1.32548e-06
3.02625e-06
1.32892e-06
3.31177e-06
1.30138e-06
1.28362e-06
3.92791e-06
4.02874e-06
1.21713e-06
4.20672e-06
3.9164e-06
1.05635e-06
1.09906e-06
1.27852e-06
4.15437e-06
1.31009e-06
4.24112e-06
1.4757e-06
1.34254e-06
4.4632e-06
4.33173e-06
1.22943e-06
6.59986e-07
1.99723e-07
5.84533e-08
9.94059e-09
4.13462e-37
0
0
0
0
0
0
0
0
0
0
0
0
0
0
0
0
0
0
0
0
0
0
0
0
0
0
0
0
0
0
0
0
0
0
0
0
0
0
0
0
0
0
0
0
0
0
0
0
0
1.94949e-07
4.37749e-07
9.82221e-07
1.03648e-06
4.96637e-07
2.59963e-07
2.20044e-07
2.09418e-07
2.72919e-07
3.17931e-07
3.34146e-07
3.09169e-07
2.49119e-07
1.89365e-07
2.94009e-07
2.75638e-07
4.61395e-07
7.17397e-07
8.87782e-07
3.65003e-06
9.18978e-07
3.83501e-06
9.18286e-07
9.79882e-07
1.05649e-06
1.05761e-06
1.05788e-06
1.0437e-06
1.08276e-06
3.29509e-06
3.52624e-06
1.06927e-06
3.72809e-06
3.75689e-06
9.60461e-07
9.6328e-07
3.31299e-06
1.21078e-06
3.53569e-06
1.21729e-06
1.33374e-06
4.28125e-06
1.26452e-06
1.15928e-06
6.78739e-06
1.08824e-06
5.51041e-07
1.49995e-07
4.21071e-08
8.25471e-09
6.23755e-11
0
0
0
0
0
0
0
0
0
0
0
0
0
0
0
0
0
0
0
0
0
0
0
0
0
0
0
0
0
0
0
0
0
0
0
0
0
0
0
0
0
0
0
0
0
0
0
0
0
1.94232e-07
2.40602e-07
4.58129e-07
8.4027e-07
1.09645e-06
8.89312e-07
7.41294e-07
5.97923e-07
4.62566e-07
4.25457e-07
3.7935e-07
3.23737e-07
2.56169e-07
1.68349e-07
1.06485e-07
9.5336e-08
2.30146e-07
1.81913e-06
5.89413e-07
7.50836e-07
3.77461e-06
7.23196e-07
7.53374e-07
7.97732e-07
8.33948e-07
8.48088e-07
4.85419e-06
8.70949e-07
9.19181e-07
3.50146e-06
9.67532e-07
8.96626e-07
8.76995e-07
8.61973e-07
8.54249e-07
8.93624e-07
1.03579e-06
1.23582e-06
3.12728e-06
3.62452e-06
1.23442e-06
1.25884e-06
1.17005e-06
4.42551e-06
9.40926e-06
9.56998e-07
4.51402e-07
1.25154e-07
4.12869e-08
8.45286e-09
3.42119e-09
1.61913e-37
0
0
0
0
0
0
0
0
0
0
0
0
0
0
0
0
0
0
0
0
0
0
0
0
0
0
0
0
0
0
0
0
0
0
0
0
0
0
0
0
0
0
0
0
0
0
0
0
1.94536e-07
2.02825e-07
2.41313e-07
3.79665e-07
7.11085e-07
9.98925e-07
1.05846e-06
1.03575e-06
9.52876e-07
8.7567e-07
8.03553e-07
6.91515e-07
5.18848e-07
3.08947e-07
1.49275e-07
7.96105e-08
9.42429e-08
1.88067e-07
3.3005e-07
2.39594e-06
2.60566e-06
5.58031e-07
6.37196e-07
5.03159e-06
4.93392e-06
7.2245e-07
7.3869e-07
7.51104e-07
7.87011e-07
4.40847e-06
4.35352e-06
7.99088e-07
7.78163e-07
7.70482e-07
3.70902e-06
8.62718e-07
1.08829e-06
3.00983e-06
3.20214e-06
1.29694e-06
1.32528e-06
1.22322e-06
1.07087e-06
1.01583e-06
9.17302e-07
8.51362e-07
3.57556e-07
1.06502e-07
3.52896e-08
1.0647e-08
3.84067e-09
2.63619e-09
0
0
0
0
0
0
0
0
0
0
0
0
0
0
0
0
0
0
0
0
0
0
0
0
0
0
0
0
0
0
0
0
0
0
0
0
0
0
0
0
0
0
0
0
0
0
0
0
1.95515e-07
1.97806e-07
2.01896e-07
2.2347e-07
3.29177e-07
5.30485e-07
6.60659e-07
7.55264e-07
8.18956e-07
8.76139e-07
9.3481e-07
9.06594e-07
7.34182e-07
4.6149e-07
2.21834e-07
9.36839e-08
5.94482e-08
1.25713e-07
1.83346e-07
2.82978e-07
3.72469e-07
4.53103e-07
5.48754e-07
6.28928e-07
6.44299e-07
6.52116e-07
4.75976e-06
6.50251e-07
6.66937e-07
6.76219e-07
6.71522e-07
4.79194e-06
4.86666e-06
6.75036e-07
7.22426e-07
8.38341e-07
1.04924e-06
1.2981e-06
1.32766e-06
1.25436e-06
1.2152e-06
1.14465e-06
1.02194e-06
9.37713e-07
9.37032e-07
7.32987e-07
2.81872e-07
9.48634e-08
2.9478e-08
6.90028e-09
3.71312e-09
2.61631e-09
0
0
0
0
0
0
0
0
0
0
0
0
0
0
0
0
0
0
0
0
0
0
0
0
0
0
0
0
0
0
0
0
0
0
0
0
0
0
0
0
0
0
0
0
0
0
0
0
1.96897e-07
1.9765e-07
1.94101e-07
1.87167e-07
1.94502e-07
2.32196e-07
2.82442e-07
3.5672e-07
5.00646e-07
6.77303e-07
8.5955e-07
9.40878e-07
8.39333e-07
5.79384e-07
3.00076e-07
1.22194e-07
5.68849e-08
5.38637e-08
1.4389e-07
1.93045e-07
1.75958e-06
4.07084e-07
5.00674e-07
5.56727e-07
5.82547e-07
5.97483e-07
5.88191e-07
5.6349e-07
5.6153e-07
5.59176e-07
5.61783e-07
4.69646e-06
5.82365e-07
5.97207e-07
6.67803e-07
8.50876e-07
1.91146e-06
1.10654e-06
1.33578e-06
1.21255e-06
1.14765e-06
3.81156e-06
9.20623e-07
8.45498e-07
9.45993e-07
6.24901e-07
2.26444e-07
7.78318e-08
1.79241e-08
5.43863e-09
3.65566e-09
1.3687e-09
0
0
0
0
0
0
0
0
0
0
0
0
0
0
0
0
0
0
0
0
0
0
0
0
0
0
0
0
0
0
0
0
0
0
0
0
0
0
0
0
0
0
0
0
0
0
0
0
1.98284e-07
1.96342e-07
1.86268e-07
1.71427e-07
1.44581e-07
1.19047e-07
1.12846e-07
1.6365e-07
2.9994e-07
5.02034e-07
7.18939e-07
8.6637e-07
8.50622e-07
6.53285e-07
3.78794e-07
1.64418e-07
6.49888e-08
4.51778e-08
8.78814e-08
1.41518e-07
2.28459e-07
3.5237e-07
4.76895e-07
5.04249e-07
5.18597e-07
3.73162e-06
3.75486e-06
4.84075e-07
4.68543e-07
4.63819e-07
4.72497e-07
4.88558e-07
5.04107e-07
5.43206e-07
6.56118e-07
8.67841e-07
9.6877e-07
1.04383e-06
1.13898e-06
1.16654e-06
1.06857e-06
9.68118e-07
8.8133e-07
7.67042e-06
9.28844e-07
5.34212e-07
1.79555e-07
6.04443e-08
1.18162e-08
4.54065e-09
2.36635e-09
0
0
0
0
0
0
0
0
0
0
0
0
0
0
0
0
0
0
0
0
0
0
0
0
0
0
0
0
0
0
0
0
0
0
0
0
0
0
0
0
0
0
0
0
0
0
0
0
0
1.98402e-07
1.86718e-07
1.72954e-07
1.46041e-07
1.05561e-07
6.10611e-08
4.42584e-08
8.50953e-08
1.95114e-07
3.67738e-07
5.77748e-07
7.52955e-07
8.04793e-07
6.89045e-07
4.55212e-07
2.23828e-07
8.65182e-08
4.33007e-08
5.04215e-08
1.20164e-07
1.69553e-07
2.75267e-07
2.15094e-06
4.28039e-07
4.43486e-07
4.35127e-07
4.26097e-07
4.10017e-07
3.87313e-07
3.81826e-07
3.93869e-07
4.12839e-07
4.41762e-07
2.97558e-06
1.80483e-06
8.33325e-07
8.65658e-07
9.63313e-07
1.09048e-06
1.1039e-06
9.79382e-07
9.12252e-07
8.10897e-07
7.84717e-07
8.87088e-07
4.61522e-07
1.47681e-07
4.46883e-08
9.01718e-09
3.85469e-09
1.8999e-09
0
0
0
0
0
0
0
0
0
0
0
0
0
0
0
0
0
0
0
0
0
0
0
0
0
0
0
0
0
0
0
0
0
0
0
0
0
0
0
0
0
0
0
0
0
0
0
0
0
1.92361e-07
1.66462e-07
1.32201e-07
1.04834e-07
6.0414e-08
2.36791e-08
2.10987e-08
5.60007e-08
1.40265e-07
2.82468e-07
4.69955e-07
6.43571e-07
7.32426e-07
6.92579e-07
5.23632e-07
2.99152e-07
1.26627e-07
5.09398e-08
4.10963e-08
8.76887e-08
1.41159e-07
2.05009e-07
2.92398e-07
3.44478e-07
2.35166e-06
3.52752e-07
3.3998e-07
3.40284e-06
3.16805e-07
3.0905e-07
3.22784e-07
3.47216e-07
3.89026e-07
4.73399e-07
6.58482e-07
7.46362e-07
7.35643e-07
8.8194e-07
1.03511e-06
1.02847e-06
9.32469e-07
8.10679e-07
7.31562e-07
1.01213e-05
8.25675e-07
3.87894e-07
1.2717e-07
3.21153e-08
7.20706e-09
3.00256e-09
4.4615e-39
0
0
0
0
0
0
0
0
0
0
0
0
0
0
0
0
0
0
0
0
0
0
0
0
0
0
0
0
0
0
0
0
0
0
0
0
0
0
0
0
0
0
0
0
0
0
0
0
0
1.75791e-07
1.16017e-07
7.55634e-08
4.67214e-08
2.09014e-08
8.46349e-09
1.66464e-08
4.7391e-08
1.14633e-07
2.34216e-07
3.95818e-07
5.53011e-07
6.54435e-07
6.70246e-07
5.72968e-07
3.81248e-07
1.87066e-07
7.39539e-08
3.92949e-08
5.35375e-08
2.50752e-06
1.57728e-07
2.09423e-07
2.63718e-07
2.58316e-06
2.75426e-07
2.63133e-07
2.6785e-07
2.50281e-07
2.44332e-07
2.60969e-07
2.88009e-07
3.38664e-07
4.41729e-07
5.83977e-07
6.0492e-07
6.14257e-07
8.07483e-07
9.74518e-07
9.30576e-07
4.44097e-06
7.3711e-07
6.70577e-07
8.87904e-07
7.38056e-07
3.1197e-07
1.05823e-07
2.23751e-08
5.69354e-09
2.51473e-09
0
0
0
0
0
0
0
0
0
0
0
0
0
0
0
0
0
0
0
0
0
0
0
0
0
0
0
0
0
0
0
0
0
0
0
0
0
0
0
0
0
0
0
0
0
0
0
0
0
0
1.27445e-07
4.19727e-08
1.79331e-08
9.2658e-09
6.07025e-09
9.4143e-09
2.10114e-08
4.68403e-08
1.02269e-07
2.0295e-07
3.4312e-07
4.80716e-07
5.79484e-07
6.29452e-07
5.96075e-07
4.55889e-07
2.62568e-07
1.15337e-07
4.91807e-08
4.12016e-08
8.25369e-08
1.42869e-07
1.54866e-07
1.90138e-07
2.10492e-07
2.09128e-07
4.58812e-06
2.00662e-07
1.91129e-07
1.88033e-07
2.09029e-07
2.36327e-07
3.0624e-07
3.85794e-07
4.48332e-07
4.50638e-07
5.22745e-07
7.60663e-07
8.97626e-07
8.17869e-07
7.19145e-07
6.70453e-07
6.51078e-07
9.03889e-07
6.40793e-07
2.49318e-07
8.39875e-08
1.51886e-08
4.61426e-09
1.60881e-09
0
0
0
0
0
0
0
0
0
0
0
0
0
0
0
0
0
0
0
0
0
0
0
0
0
0
0
0
0
0
0
0
0
0
0
0
0
0
0
0
0
0
0
0
0
0
0
0
0
0
1.26066e-09
1.00789e-08
1.2863e-08
1.48604e-08
1.67795e-08
2.02049e-08
2.8247e-08
4.7981e-08
9.55217e-08
1.85865e-07
3.03639e-07
4.20502e-07
5.12352e-07
5.79382e-07
5.9264e-07
5.09092e-07
3.40489e-07
1.72978e-07
7.45251e-08
4.06113e-08
4.46615e-08
1.00432e-07
1.32092e-07
1.37491e-07
1.54395e-07
5.05806e-06
4.36812e-06
1.45501e-07
1.39261e-07
1.39791e-07
4.04328e-06
1.98024e-07
2.93814e-07
3.09619e-07
3.04823e-07
3.44775e-07
4.66109e-07
7.35998e-07
7.91483e-07
6.96295e-07
6.31776e-07
6.01016e-07
6.73141e-07
6.79913e-06
5.51664e-07
1.95451e-07
6.76648e-08
1.16125e-08
3.5004e-09
2.19497e-10
2.00243e-13
0
0
0
0
0
0
0
0
0
0
0
0
0
0
0
0
0
0
0
0
0
0
0
0
0
0
0
0
0
0
0
0
0
0
0
0
0
0
0
0
0
0
0
0
0
0
0
0
0
5.79068e-08
6.88627e-08
6.50953e-08
5.52839e-08
4.29635e-08
3.41107e-08
3.40614e-08
4.87746e-08
8.96066e-08
1.62199e-07
2.5062e-07
3.47347e-07
4.3583e-07
5.11327e-07
5.6054e-07
5.44766e-07
4.41304e-07
2.85756e-07
1.51879e-07
7.42261e-08
4.14952e-08
3.87784e-08
7.31276e-08
1.01822e-07
9.37662e-08
9.09336e-08
8.53609e-08
8.00763e-08
7.53064e-08
7.65643e-08
9.56822e-08
1.36587e-07
1.34631e-07
1.20055e-07
1.46087e-07
2.1286e-07
3.88813e-07
6.94701e-07
6.1489e-07
5.52633e-07
5.30479e-07
5.12282e-07
9.83855e-06
8.25797e-07
3.89246e-07
1.19312e-07
2.949e-08
6.58215e-09
1.53552e-13
0
0
0
0
0
0
0
0
0
0
0
0
0
0
0
0
0
0
0
0
0
0
0
0
0
0
0
0
0
0
0
0
0
0
0
0
0
0
0
0
0
0
0
0
0
0
0
0
0
0
0
7.03156e-09
1.62881e-08
2.40688e-08
2.69859e-08
2.56762e-08
2.42531e-08
2.77435e-08
4.25583e-08
7.71107e-08
1.33229e-07
1.98524e-07
2.62538e-07
3.39171e-07
4.14158e-07
4.72488e-07
4.96735e-07
4.60419e-07
3.6373e-07
2.42168e-07
1.40237e-07
7.51313e-08
4.11477e-08
2.872e-08
3.46543e-08
4.79875e-08
5.29833e-08
4.97458e-08
3.97059e-08
2.90872e-08
1.94418e-08
2.48332e-08
4.41522e-08
1.31477e-08
2.49815e-08
5.98684e-08
1.39519e-07
3.57681e-07
5.48847e-07
4.30117e-07
4.2259e-07
4.12035e-07
9.4491e-06
6.70658e-06
6.21353e-07
2.27078e-07
6.64356e-08
1.37932e-08
1.61546e-09
0
0
0
0
0
0
0
0
0
0
0
0
0
0
0
0
0
0
0
0
0
0
0
0
0
0
0
0
0
0
0
0
0
0
0
0
0
0
0
0
0
0
0
0
0
0
0
0
0
0
0
0
9.7892e-10
3.70786e-09
6.95391e-09
9.78107e-09
1.1954e-08
1.4748e-08
2.10258e-08
3.57569e-08
6.45225e-08
1.07682e-07
1.57725e-07
2.08528e-07
2.61909e-07
3.31997e-07
3.8974e-07
4.22586e-07
4.16691e-07
3.64832e-07
2.81098e-07
1.91539e-07
1.1804e-07
6.75521e-08
3.68374e-08
2.17354e-08
1.6292e-08
1.52993e-08
1.48914e-08
1.14857e-08
8.9492e-09
3.54097e-09
2.24357e-09
7.03181e-09
5.73502e-09
7.49044e-09
3.30613e-08
1.13128e-07
3.77767e-07
3.32896e-07
3.0184e-07
3.13517e-07
3.66653e-07
6.80638e-07
7.77437e-07
4.01342e-07
1.24752e-07
3.38923e-08
7.85245e-09
8.68394e-38
0
0
0
0
0
0
0
0
0
0
0
0
0
0
0
0
0
0
0
0
0
0
0
0
0
0
0
0
0
0
0
0
0
0
0
0
0
0
0
0
0
0
0
0
0
0
0
0
0
0
0
0
1.99328e-10
8.9142e-10
2.09649e-09
3.73415e-09
6.15652e-09
1.01663e-08
1.75114e-08
3.1599e-08
5.52451e-08
8.82059e-08
1.2703e-07
1.68955e-07
2.14502e-07
2.66652e-07
3.27161e-07
3.63504e-07
3.69751e-07
3.42272e-07
2.87031e-07
2.18603e-07
1.52167e-07
9.88816e-08
6.01192e-08
3.36992e-08
1.74263e-08
9.08074e-09
6.18661e-09
5.51468e-09
4.7111e-09
2.96376e-09
1.77102e-09
1.39884e-09
3.43987e-09
4.73729e-09
2.93061e-08
1.25007e-07
2.69222e-07
2.04617e-07
2.14682e-07
2.73431e-07
4.71642e-07
7.69785e-07
5.72308e-07
2.29733e-07
7.25337e-08
1.68384e-08
4.34942e-09
0
0
0
0
0
0
0
0
0
0
0
0
0
0
0
0
0
0
0
0
0
0
0
0
0
0
0
0
0
0
0
0
0
0
0
0
0
0
0
0
0
0
0
0
0
0
0
0
0
0
0
0
0
0
2.60769e-10
7.19945e-10
1.90374e-09
4.39012e-09
8.74844e-09
1.66255e-08
2.95148e-08
4.88701e-08
7.39359e-08
1.04314e-07
1.39462e-07
1.79673e-07
2.28375e-07
2.81333e-07
3.23612e-07
3.39273e-07
3.26249e-07
2.91101e-07
2.41416e-07
1.8488e-07
1.30692e-07
8.48332e-08
4.94151e-08
2.51931e-08
1.16336e-08
6.38328e-09
3.70673e-09
2.64149e-09
1.69382e-09
9.11968e-10
8.20167e-10
3.28895e-09
6.6569e-09
4.043e-08
1.65171e-07
1.29289e-07
1.36002e-07
1.96236e-07
3.78095e-07
6.9788e-07
7.16213e-07
3.72027e-07
1.1714e-07
3.15937e-08
8.53946e-09
3.69018e-13
0
0
0
0
0
0
0
0
0
0
0
0
0
0
0
0
0
0
0
0
0
0
0
0
0
0
0
0
0
0
0
0
0
0
0
0
0
0
0
0
0
0
0
0
0
0
0
0
0
0
0
0
0
0
3.51522e-13
4.53697e-10
1.38418e-09
3.68162e-09
8.21015e-09
1.53667e-08
2.61827e-08
4.1509e-08
6.11106e-08
8.59279e-08
1.33718e-07
1.97013e-07
2.73759e-07
3.38975e-07
3.86929e-07
4.01547e-07
3.8549e-07
3.45197e-07
2.88582e-07
2.23867e-07
1.59933e-07
1.03727e-07
5.92439e-08
2.88084e-08
1.24865e-08
6.13834e-09
2.65552e-09
1.52509e-09
9.97777e-10
5.33205e-10
2.34141e-09
1.19368e-08
2.63208e-08
6.55293e-08
7.78166e-08
7.72559e-08
1.23828e-07
2.92166e-07
5.72164e-07
7.61222e-07
4.67927e-07
1.86218e-07
5.91869e-08
1.3709e-08
1.7416e-09
0
0
0
0
0
0
0
0
0
0
0
0
0
0
0
0
0
0
0
0
0
0
0
0
0
0
0
0
0
0
0
0
0
0
0
0
0
0
0
0
0
0
0
0
0
0
0
0
0
0
0
0
0
0
0
1.20213e-12
2.0572e-10
8.5055e-10
2.31899e-09
4.88611e-09
9.14035e-09
1.59967e-08
2.72925e-08
4.6231e-08
9.44705e-08
1.64704e-07
2.4656e-07
3.47447e-07
4.35086e-07
4.87153e-07
5.00029e-07
4.74491e-07
4.18836e-07
3.44408e-07
2.6221e-07
1.82748e-07
1.14301e-07
6.17552e-08
2.75152e-08
1.07961e-08
5.01522e-09
1.96842e-09
1.10113e-09
7.09767e-10
4.49595e-10
5.42321e-09
1.18503e-08
2.14422e-08
3.3046e-08
4.43192e-08
7.98128e-08
1.87092e-07
4.41445e-07
5.81796e-07
4.92794e-07
2.54321e-07
8.74016e-08
2.25773e-08
7.08278e-09
0
0
0
0
0
0
0
0
0
0
0
0
0
0
0
0
0
0
0
0
0
0
0
0
0
0
0
0
0
0
0
0
0
0
0
0
0
0
0
0
0
0
0
0
0
0
0
0
0
0
0
0
0
0
0
0
0
4.56799e-11
5.25937e-11
1.16261e-10
2.29706e-10
5.83986e-10
2.06577e-09
8.23569e-09
3.4669e-08
9.70802e-08
1.83182e-07
2.80865e-07
4.02254e-07
5.28532e-07
5.94928e-07
6.08199e-07
5.71364e-07
4.9545e-07
3.97213e-07
2.93475e-07
1.97109e-07
1.17338e-07
5.90243e-08
2.34722e-08
7.90647e-09
3.55933e-09
1.49423e-09
9.96528e-10
1.01911e-09
2.26273e-09
4.74592e-09
1.03377e-08
1.87604e-08
2.769e-08
5.12883e-08
1.46431e-07
3.00136e-07
5.29796e-07
4.15363e-07
2.67042e-07
1.08775e-07
3.61488e-08
1.08456e-08
3.82202e-09
0
0
0
0
0
0
0
0
0
0
0
0
0
0
0
0
0
0
0
0
0
0
0
0
0
0
0
0
0
0
0
0
0
0
0
0
0
0
0
0
0
0
0
0
0
0
0
0
0
0
0
0
0
0
0
0
0
0
7.86427e-12
1.91877e-11
1.3751e-11
2.60795e-11
2.55373e-11
7.61904e-10
1.76203e-08
7.94832e-08
1.72007e-07
2.79478e-07
4.16612e-07
5.78046e-07
6.72125e-07
6.98677e-07
6.57742e-07
5.64086e-07
4.4231e-07
3.17415e-07
2.05838e-07
1.17237e-07
5.53182e-08
1.95536e-08
5.10081e-09
1.71521e-09
8.62572e-10
6.73018e-10
1.8482e-09
4.64812e-09
1.2123e-08
2.79454e-08
4.47614e-08
5.4036e-08
1.01636e-07
2.41514e-07
3.58279e-07
4.28821e-07
2.46413e-07
1.1019e-07
4.54866e-08
1.32159e-08
5.57411e-09
0
0
0
0
0
0
0
0
0
0
0
0
0
0
0
0
0
0
0
0
0
0
0
0
0
0
0
0
0
0
0
0
0
0
0
0
0
0
0
0
0
0
0
0
0
0
0
0
0
0
0
0
0
0
0
0
0
0
0
3.06245e-12
5.20062e-12
1.31385e-11
2.52934e-11
1.35184e-10
9.15794e-10
7.93451e-09
5.33667e-08
1.42004e-07
2.52943e-07
4.02132e-07
5.85151e-07
7.0939e-07
7.57866e-07
7.22626e-07
6.18682e-07
4.78939e-07
3.36935e-07
2.13802e-07
1.19039e-07
5.46634e-08
1.8331e-08
3.68498e-09
6.07142e-10
4.39292e-10
1.70481e-09
6.27372e-09
1.85658e-08
4.74448e-08
9.16033e-08
1.32306e-07
1.26222e-07
2.08061e-07
3.22238e-07
3.16667e-07
2.70101e-07
1.1876e-07
4.83406e-08
1.53773e-08
6.25012e-09
1.43098e-13
0
0
0
0
0
0
0
0
0
0
0
0
0
0
0
0
0
0
0
0
0
0
0
0
0
0
0
0
0
0
0
0
0
0
0
0
0
0
0
0
0
0
0
0
0
0
0
0
0
0
0
0
0
0
0
0
0
0
0
0
3.59659e-12
6.16993e-12
1.52558e-11
1.35191e-10
9.40645e-10
4.44268e-09
2.92167e-08
1.03628e-07
2.08788e-07
3.63272e-07
5.55817e-07
7.05849e-07
7.79662e-07
7.59821e-07
6.57005e-07
5.08889e-07
3.5667e-07
2.26665e-07
1.28001e-07
6.11897e-08
2.27952e-08
6.21775e-09
1.99375e-09
3.24918e-09
1.01613e-08
2.80832e-08
6.86135e-08
1.46534e-07
2.20691e-07
3.15871e-07
2.38715e-07
3.13333e-07
3.2044e-07
2.28018e-07
1.37485e-07
5.66487e-08
1.68395e-08
7.24999e-09
5.7126e-13
0
0
0
0
0
0
0
0
0
0
0
0
0
0
0
0
0
0
0
0
0
0
0
0
0
0
0
0
0
0
0
0
0
0
0
0
0
0
0
0
0
0
0
0
0
0
0
0
0
0
0
0
0
0
0
0
0
0
0
0
0
0
1.08461e-11
1.28997e-11
5.28894e-11
6.32702e-10
3.39028e-09
1.31896e-08
6.5357e-08
1.6324e-07
3.0599e-07
4.96858e-07
6.6595e-07
7.64449e-07
7.6794e-07
6.79214e-07
5.34539e-07
3.81362e-07
2.49831e-07
1.49191e-07
7.96341e-08
3.72682e-08
1.768e-08
1.32832e-08
1.93858e-08
4.01755e-08
8.6963e-08
1.72502e-07
3.28059e-07
3.53391e-07
3.7071e-07
3.14763e-07
3.03911e-07
2.3367e-07
1.22987e-07
6.17102e-08
2.0234e-08
8.97277e-09
1.65589e-09
0
0
0
0
0
0
0
0
0
0
0
0
0
0
0
0
0
0
0
0
0
0
0
0
0
0
0
0
0
0
0
0
0
0
0
0
0
0
0
0
0
0
0
0
0
0
0
0
0
0
0
0
0
0
0
0
0
0
0
0
0
0
0
0
0
3.23842e-11
2.55092e-10
1.89122e-09
7.53612e-09
3.27086e-08
1.11733e-07
2.31303e-07
4.10958e-07
5.93374e-07
7.13672e-07
7.45976e-07
6.83488e-07
5.56288e-07
4.12786e-07