/*--------------------------------*- C++ -*----------------------------------*\
  =========                 |
  \\      /  F ield         | OpenFOAM: The Open Source CFD Toolbox
   \\    /   O peration     | Website:  https://openfoam.org
    \\  /    A nd           | Version:  6
     \\/     M anipulation  |
\*---------------------------------------------------------------------------*/
FoamFile
{
    version     2.0;
    format      ascii;
    class       volScalarField;
    location    "0.005";
    object      C2H6;
}
// * * * * * * * * * * * * * * * * * * * * * * * * * * * * * * * * * * * * * //

dimensions      [0 0 0 0 0 0 0];

internalField   nonuniform List<scalar> 
8000
(
2.4786e-17
7.76151e-13
5.1235e-12
5.4916e-11
8.55374e-10
1.34266e-08
1.24379e-07
4.56737e-07
7.86951e-07
1.0518e-06
1.29364e-06
1.51937e-06
1.74033e-06
1.89837e-06
1.91509e-06
1.90579e-06
2.07319e-06
2.51529e-06
3.2174e-06
4.92815e-06
1.01028e-05
2.00546e-05
2.41434e-05
2.80906e-05
4.2643e-05
0.000133928
0.0002471
0.000243158
0.000174806
0.000120315
0.000108397
0.00014529
0.000252742
0.000424986
0.000641739
0.000814421
0.000972274
0.00109665
0.00118283
0.00124256
0.00129005
0.00128093
0.00118106
0.000978049
0.000471666
2.75844e-05
8.02181e-06
1.05721e-05
1.35164e-05
5.10098e-06
6.6096e-07
5.58584e-08
1.01502e-09
0
0
0
0
0
0
0
0
0
0
0
0
0
0
0
0
0
0
0
0
0
0
0
0
0
0
0
0
0
0
0
0
0
0
0
0
0
0
0
0
0
0
0
0
0
0
0
4.03792e-16
7.44097e-12
2.06383e-11
1.92332e-10
2.06688e-09
2.96611e-08
2.60202e-07
7.46207e-07
1.1763e-06
1.57216e-06
1.899e-06
2.13625e-06
2.35452e-06
2.58019e-06
2.5522e-06
2.38565e-06
2.45817e-06
2.87025e-06
3.52313e-06
5.2216e-06
1.06458e-05
2.29108e-05
0.000233315
3.25378e-05
5.11309e-05
0.000183507
0.000377991
0.000316418
0.000188137
0.000116331
0.00010194
0.000139841
0.000251783
0.000433202
0.000660807
0.000849204
0.00098509
0.00112034
0.00118904
0.00127609
0.00131839
0.00128586
0.00118551
0.000983767
0.000485713
3.51457e-05
9.63677e-06
1.12316e-05
2.58598e-05
1.32478e-05
2.30327e-06
9.36795e-08
3.29253e-10
0
0
0
0
0
0
0
0
0
0
0
0
0
0
0
0
0
0
0
0
0
0
0
0
0
0
0
0
0
0
0
0
0
0
0
0
0
0
0
0
0
0
0
0
0
0
0
3.04161e-12
1.4322e-07
3.14268e-12
3.28489e-07
9.9123e-09
9.97215e-08
5.45571e-07
1.20981e-06
2.27057e-06
2.69187e-06
3.12246e-06
3.3572e-06
3.49267e-06
3.90855e-06
5.96981e-06
4.57496e-06
3.1698e-06
3.73294e-06
4.45383e-06
5.92501e-06
9.98184e-06
1.86841e-05
2.49282e-05
2.79432e-05
3.64312e-05
0.000154526
0.0010524
0.000396963
0.000170706
9.56563e-05
8.71432e-05
0.000131424
0.000254775
0.000454048
0.000703815
0.000896029
0.00102619
0.00113816
0.00121958
0.00128783
0.00132938
0.00132036
0.00121344
0.00100979
0.000526845
4.57202e-05
5.14135e-05
1.08032e-05
1.78105e-05
7.36761e-06
9.50053e-07
5.34813e-08
3.48868e-22
0
0
0
0
0
0
0
0
0
0
0
0
0
0
0
0
0
0
0
0
0
0
0
0
0
0
0
0
0
0
0
0
0
0
0
0
0
0
0
0
0
0
0
0
0
0
0
4.16378e-16
1.2362e-10
4.01144e-09
3.62842e-08
1.49629e-07
3.44102e-07
8.14974e-07
1.57192e-06
2.71946e-06
5.83136e-06
6.29971e-06
6.65532e-06
6.51921e-06
7.23361e-06
3.64851e-06
3.44191e-06
3.91016e-06
6.02131e-06
9.86622e-06
7.91183e-06
1.09806e-05
2.02868e-05
2.4322e-05
2.65228e-05
2.79361e-05
4.94956e-05
0.000119189
0.000135929
0.000103064
0.000146449
7.97116e-05
0.000134202
0.000271784
0.000488466
0.000768785
0.000958298
0.00107678
0.00116556
0.0012359
0.00132719
0.00134264
0.00133449
0.00122716
0.00102569
0.000555088
4.33757e-05
8.83269e-06
6.85661e-06
6.96529e-06
2.70592e-06
2.79222e-07
2.2334e-08
2.78899e-24
0
0
0
0
0
0
0
0
0
0
0
0
0
0
0
0
0
0
0
0
0
0
0
0
0
0
0
0
0
0
0
0
0
0
0
0
0
0
0
0
0
0
0
0
0
0
0
5.91091e-14
1.49779e-10
6.41015e-07
2.81354e-07
1.2847e-06
7.92562e-07
1.07169e-06
1.41823e-06
3.03838e-06
7.63121e-06
3.57717e-05
2.91249e-05
1.78656e-05
5.66165e-06
4.10451e-06
6.17439e-06
5.45241e-06
1.2031e-05
1.05215e-05
1.1435e-05
1.64613e-05
2.09752e-05
2.3327e-05
4.72564e-05
5.12469e-05
2.92521e-05
5.2077e-05
0.000377288
0.00017945
8.44676e-05
8.25546e-05
0.000153317
0.000306385
0.000549807
0.000852101
0.00118219
0.00113431
0.00120646
0.00130527
0.00134455
0.00135684
0.00134896
0.00127549
0.00105955
0.000586607
4.53188e-05
7.49078e-06
4.84519e-06
3.22254e-06
1.0232e-06
1.18964e-07
3.16316e-09
0
0
0
0
0
0
0
0
0
0
0
0
0
0
0
0
0
0
0
0
0
0
0
0
0
0
0
0
0
0
0
0
0
0
0
0
0
0
0
0
0
0
0
0
0
0
0
0
2.16145e-12
2.66906e-11
1.23853e-07
8.61092e-07
1.37372e-06
1.15467e-06
1.30604e-06
1.72103e-06
2.55498e-06
3.90412e-06
6.41053e-06
6.58448e-06
5.26974e-06
4.16856e-06
4.08461e-06
5.18876e-06
8.47568e-06
1.70532e-05
1.79234e-05
2.34142e-05
1.84657e-05
2.511e-05
2.44031e-05
4.94522e-05
4.65547e-05
2.94561e-05
3.4181e-05
0.000204765
0.00011124
5.2437e-05
7.57658e-05
0.000189475
0.000500287
0.000599929
0.000876155
0.00106123
0.00115599
0.00125386
0.00132197
0.00136201
0.00137048
0.00136212
0.00129356
0.0010784
0.000622845
5.79603e-05
8.29779e-06
4.79402e-06
2.27333e-06
7.23396e-07
1.65217e-07
3.28683e-08
0
0
0
0
0
0
0
0
0
0
0
0
0
0
0
0
0
0
0
0
0
0
0
0
0
0
0
0
0
0
0
0
0
0
0
0
0
0
0
0
0
0
0
0
0
0
0
0
1.50902e-12
3.7591e-10
3.27053e-08
2.68541e-07
6.79426e-07
9.67111e-07
1.31625e-06
2.00383e-06
2.57593e-06
3.06439e-06
4.37005e-06
5.3466e-06
4.95776e-06
4.07556e-06
4.96032e-06
7.40288e-06
1.1126e-05
1.80601e-05
3.94798e-05
2.48648e-05
3.43326e-05
2.37031e-05
3.90635e-05
3.10104e-05
4.84458e-05
3.67518e-05
2.96732e-05
2.96224e-05
2.68823e-05
4.05078e-05
9.55419e-05
0.000218995
0.000415669
0.000657634
0.000905908
0.0010943
0.00119432
0.001294
0.00133292
0.00133152
0.00138185
0.00137322
0.0013229
0.00108914
0.00066542
8.33683e-05
1.04679e-05
7.18779e-06
3.67628e-06
1.19862e-06
3.69267e-07
7.0838e-08
0
0
0
0
0
0
0
0
0
0
0
0
0
0
0
0
0
0
0
0
0
0
0
0
0
0
0
0
0
0
0
0
0
0
0
0
0
0
0
0
0
0
0
0
0
0
0
0
1.68517e-07
2.58346e-07
3.73853e-08
3.49979e-07
7.18884e-07
1.12556e-06
1.96019e-06
3.09186e-06
5.74437e-06
3.72632e-06
3.6169e-06
3.65658e-06
4.00628e-06
5.68452e-06
9.93279e-06
1.38308e-05
2.29231e-05
3.85836e-05
3.78969e-05
4.80723e-05
3.00943e-05
2.93393e-05
4.33126e-05
3.31417e-05
3.45483e-05
4.26833e-05
2.61209e-05
2.13521e-05
2.46674e-05
6.65454e-05
0.000182572
0.000333708
0.000526101
0.000728287
0.000966803
0.00112862
0.00124374
0.00130697
0.0013375
0.0013763
0.00138926
0.00138386
0.0013263
0.00111199
0.000715604
0.000116632
1.34665e-05
1.07244e-05
5.58358e-06
4.81628e-08
5.21865e-08
3.72926e-08
0
0
0
0
0
0
0
0
0
0
0
0
0
0
0
0
0
0
0
0
0
0
0
0
0
0
0
0
0
0
0
0
0
0
0
0
0
0
0
0
0
0
0
0
0
0
0
0
1.7408e-07
3.88622e-07
1.66627e-07
9.57839e-07
9.14889e-07
1.76052e-06
2.06793e-06
4.68401e-06
1.38723e-05
5.91172e-06
7.10139e-06
6.5104e-06
5.5942e-06
7.56804e-06
9.92089e-06
1.66268e-05
2.60751e-05
4.75967e-05
2.34292e-05
4.08245e-05
3.57884e-05
4.32535e-05
3.41275e-05
4.71893e-05
4.40654e-05
3.21839e-05
2.55664e-05
2.17122e-05
3.90061e-05
0.000141603
0.000482485
0.000591397
0.000637783
0.000832567
0.00104944
0.00117968
0.00128773
0.00131418
0.0013357
0.00137103
0.00134157
0.00133934
0.00133028
0.00111353
0.000867417
0.000171646
1.67197e-05
9.09199e-06
4.55319e-06
1.49037e-06
3.00018e-07
2.4397e-08
0
0
0
0
0
0
0
0
0
0
0
0
0
0
0
0
0
0
0
0
0
0
0
0
0
0
0
0
0
0
0
0
0
0
0
0
0
0
0
0
0
0
0
0
0
0
0
0
4.28675e-13
3.59734e-07
6.21069e-07
8.60118e-07
1.59792e-06
1.9181e-06
3.20106e-06
4.51726e-06
6.64831e-06
8.95967e-06
7.42119e-06
8.7918e-06
1.12007e-05
1.5287e-05
2.69904e-05
2.18619e-05
2.00142e-05
3.44066e-05
5.08471e-05
4.70194e-05
4.22792e-05
4.65234e-05
4.07033e-05
4.06784e-05
3.79253e-05
3.20776e-05
2.78388e-05
2.90831e-05
5.72009e-05
0.000260277
0.00035459
0.00056521
0.000884795
0.000901707
0.0010992
0.00126769
0.00130394
0.00131597
0.00132781
0.00135805
0.00133442
0.00138611
0.0013296
0.0011086
0.000656576
9.38387e-05
5.5452e-05
7.86803e-06
4.11448e-06
1.39436e-06
4.04775e-07
2.3938e-08
0
0
0
0
0
0
0
0
0
0
0
0
0
0
0
0
0
0
0
0
0
0
0
0
0
0
0
0
0
0
0
0
0
0
0
0
0
0
0
0
0
0
0
0
0
0
0
0
2.19175e-07
3.24207e-07
1.06105e-06
1.78659e-06
2.62866e-06
3.82312e-06
6.09886e-06
8.74105e-06
1.03875e-05
1.16131e-05
1.32382e-05
1.52468e-05
1.64134e-05
2.00073e-05
1.87901e-05
1.95425e-05
2.28251e-05
5.78567e-05
2.07178e-05
2.52174e-05
4.68562e-05
4.0274e-05
4.88579e-05
5.47871e-05
4.47515e-05
3.77776e-05
4.02346e-05
5.2788e-05
0.000114307
0.00024337
0.000418864
0.000629346
0.000827702
0.000995573
0.00114227
0.00126779
0.00131073
0.00128811
0.00131428
0.00133928
0.00136533
0.00137934
0.00132797
0.00108247
0.000618208
7.84492e-05
1.31925e-05
6.74734e-06
3.20138e-06
5.41205e-08
2.19506e-07
2.37975e-08
0
0
0
0
0
0
0
0
0
0
0
0
0
0
0
0
0
0
0
0
0
0
0
0
0
0
0
0
0
0
0
0
0
0
0
0
0
0
0
0
0
0
0
0
0
0
0
0
2.77348e-08
1.67135e-06
2.8449e-06
4.55024e-06
6.15348e-06
8.24722e-06
1.07987e-05
1.44744e-05
2.00189e-05
2.01525e-05
2.04336e-05
2.11584e-05
2.40075e-05
3.26798e-05
2.38036e-05
2.44048e-05
2.71676e-05
5.59793e-05
2.42601e-05
2.77854e-05
4.99431e-05
5.25766e-05
6.65378e-05
9.21394e-05
6.05951e-05
5.24085e-05
7.19494e-05
0.000127941
0.00021729
0.00052253
0.000560081
0.000743061
0.000920524
0.0011762
0.00114977
0.00125316
0.00128349
0.00129688
0.00129494
0.00131732
0.00134455
0.00137433
0.00129269
0.00106691
0.000572044
7.77698e-05
4.23448e-05
9.0068e-06
2.28947e-06
1.05784e-06
3.64064e-08
2.67791e-08
4.36257e-10
0
0
0
0
0
0
0
0
0
0
0
0
0
0
0
0
0
0
0
0
0
0
0
0
0
0
0
0
0
0
0
0
0
0
0
0
0
0
0
0
0
0
0
0
0
0
0
1.23946e-06
5.58411e-06
1.02663e-05
1.24369e-05
1.76054e-05
2.14425e-05
2.0756e-05
3.65337e-05
4.81423e-05
4.63698e-05
3.95099e-05
3.72651e-05
2.74847e-05
3.5105e-05
2.62085e-05
2.80198e-05
4.97299e-05
3.87987e-05
4.83428e-05
3.27454e-05
7.37913e-05
7.0485e-05
9.74403e-05
0.000159977
8.85991e-05
8.83091e-05
0.000118638
0.000243986
0.000310983
0.000521008
0.000676832
0.000854399
0.00102102
0.001087
0.00114132
0.00122847
0.00126187
0.0012621
0.00127094
0.00129368
0.00132375
0.00131607
0.00128541
0.00104432
0.000516561
4.7316e-05
1.12038e-05
8.04682e-06
1.59516e-06
6.26998e-07
1.00344e-07
2.70857e-08
1.87355e-08
2.06039e-09
0
0
0
0
0
0
0
0
0
0
0
0
0
0
0
0
0
0
0
0
0
0
0
0
0
0
0
0
0
0
0
0
0
0
0
0
0
0
0
0
0
0
0
0
0
0
5.17839e-06
2.2686e-05
2.45865e-05
2.77225e-05
2.42836e-05
4.36387e-05
4.50889e-05
3.13368e-05
4.45852e-05
5.41891e-05
6.27837e-05
5.49306e-05
4.61464e-05
3.76583e-05
3.17968e-05
3.05934e-05
3.57661e-05
3.16754e-05
5.2633e-05
5.46557e-05
0.00027484
0.000112896
0.000122769
0.000144511
0.000190124
0.000166008
0.000268512
0.0002665
0.00043254
0.000680053
0.000834786
0.00097397
0.00118773
0.00111099
0.00112048
0.00116648
0.00121837
0.00122954
0.00124165
0.00126901
0.0013015
0.00134685
0.00126715
0.000995772
0.000440308
2.45014e-05
9.12195e-06
3.40204e-06
1.12558e-06
3.85921e-07
7.16294e-08
3.00426e-08
2.21885e-08
1.69898e-08
1.21062e-09
0
0
0
0
0
0
0
0
0
0
0
0
0
0
0
0
0
0
0
0
0
0
0
0
0
0
0
0
0
0
0
0
0
0
0
0
0
0
0
0
0
0
0
0
0
2.67681e-05
0.000549018
0.000263261
0.000111453
5.44194e-05
5.87619e-05
4.22697e-05
4.08575e-05
0.00011121
0.000156574
0.000330197
0.000182043
0.000170491
8.92335e-05
8.97954e-05
4.11478e-05
3.60647e-05
4.01511e-05
5.15381e-05
0.000109354
0.000259229
0.000166425
0.000143456
0.000177633
0.000219806
0.000431283
0.000292397
0.00039157
0.000584166
0.00109323
0.00112232
0.00116666
0.00119502
0.00118376
0.00117331
0.00117328
0.00108312
0.00109359
0.00121133
0.00120603
0.00125639
0.00132981
0.00125746
0.00108778
0.000372826
3.76423e-05
7.26537e-06
2.81201e-06
9.49382e-07
3.40221e-07
6.30342e-08
2.95533e-08
2.59061e-08
2.48663e-08
1.23822e-08
0
0
0
0
0
0
0
0
0
0
0
0
0
0
0
0
0
0
0
0
0
0
0
0
0
0
0
0
0
0
0
0
0
0
0
0
0
0
0
0
0
0
0
0
0
3.91843e-06
6.36315e-05
0.000134213
0.00092167
0.00026352
0.000147976
5.82933e-05
8.56261e-05
0.000237407
0.000409361
0.000931156
0.000869919
0.00039493
0.000198925
9.96831e-05
5.17326e-05
3.76679e-05
3.82182e-05
5.81356e-05
0.000111422
0.000112681
0.000125012
0.000175899
0.000259514
0.000506366
0.000406076
0.000448133
0.00056213
0.000692676
0.000880283
0.00111182
0.0010228
0.0010469
0.00102716
0.00101081
0.00112169
0.00111254
0.00100312
0.00116825
0.00120609
0.00116364
0.0012735
0.00122958
0.000878075
0.000277778
1.24324e-05
5.89736e-06
2.31629e-06
8.15689e-07
3.4944e-07
5.57078e-08
2.45924e-08
2.18973e-08
2.58098e-08
5.1484e-08
0
0
0
0
0
0
0
0
0
0
0
0
0
0
0
0
0
0
0
0
0
0
0
0
0
0
0
0
0
0
0
0
0
0
0
0
0
0
0
0
0
0
0
0
0
3.95288e-07
2.75826e-05
6.98568e-05
0.00030812
0.000585838
0.00019912
8.32516e-05
9.548e-05
0.000236565
0.00104033
0.0010713
0.00127103
0.0010294
0.000435591
0.000178482
9.35015e-05
5.88145e-05
5.00889e-05
8.29078e-05
9.30365e-05
0.000102864
0.000135105
0.000201226
0.000486824
0.000564134
0.000515817
0.000698778
0.000846834
0.000923365
0.000995329
0.00089321
0.000956173
0.000955037
0.000950573
0.00105361
0.00102862
0.00102604
0.000891715
0.000967672
0.00116958
0.00120448
0.00117245
0.00118244
0.000777709
0.000282502
4.3682e-05
1.25587e-05
1.94695e-06
8.67812e-07
3.1676e-07
3.27283e-08
6.54382e-09
3.35309e-11
1.61149e-09
1.00186e-19
0
0
0
0
0
0
0
0
0
0
0
0
0
0
0
0
0
0
0
0
0
0
0
0
0
0
0
0
0
0
0
0
0
0
0
0
0
0
0
0
0
0
0
0
0
2.72104e-06
1.49092e-05
2.74981e-05
0.000107336
0.000402937
0.000307758
7.60754e-05
7.60843e-05
0.000207014
0.00053587
0.000959478
0.00120937
0.00117032
0.000837918
0.000268952
0.000124216
0.000102776
7.23544e-05
0.000111841
9.43048e-05
0.000105597
0.000197438
0.000185779
0.000285498
0.000389274
0.000440413
0.00046934
0.000539141
0.000601969
0.000698946
0.000828959
0.00105138
0.00104151
0.00083137
0.000957657
0.000737117
0.000740485
0.000789296
0.000868707
0.000971523
0.00117138
0.00119451
0.000978653
0.000660894
0.000173882
3.65161e-05
4.07488e-06
1.80459e-06
8.8378e-07
8.68083e-08
5.25236e-09
0
0
0
0
0
0
0
0
0
0
0
0
0
0
0
0
0
0
0
0
0
0
0
0
0
0
0
0
0
0
0
0
0
0
0
0
0
0
0
0
0
0
0
0
0
0
0
0
0
3.12701e-06
9.90299e-06
1.56038e-05
2.74669e-05
8.87029e-05
6.60749e-05
3.34328e-05
3.82787e-05
0.000102771
0.000217755
0.000356111
0.000383471
0.000528219
0.000281129
0.000126211
8.74234e-05
7.83425e-05
8.71545e-05
0.000105499
0.000105613
0.000119707
0.000141529
0.000163152
0.000211664
0.000295298
0.000496835
0.000394091
0.000497281
0.000467525
0.000603109
0.000860448
0.000903983
0.000748319
0.00091344
0.00082752
0.00059812
0.000609434
0.00068238
0.000989969
0.000880339
0.00112094
0.00100404
0.000852668
0.000742642
9.40574e-05
7.29396e-06
3.51825e-06
1.48155e-06
4.20931e-07
5.6945e-08
4.64767e-33
0
0
0
0
0
0
0
0
0
0
0
0
0
0
0
0
0
0
0
0
0
0
0
0
0
0
0
0
0
0
0
0
0
0
0
0
0
0
0
0
0
0
0
0
0
0
0
0
0
2.85629e-06
5.76826e-06
1.3107e-05
1.69719e-05
1.78941e-05
1.57452e-05
1.18504e-05
1.57096e-05
3.5543e-05
5.47445e-05
7.3787e-05
7.75821e-05
6.04015e-05
4.03478e-05
4.22796e-05
4.09086e-05
7.09198e-05
0.000100327
0.000108528
0.000213434
0.000121113
0.000221643
0.000132886
0.000158069
0.000202222
0.000269194
0.000298275
0.000317396
0.000386846
0.000593802
0.000697034
0.000578508
0.000750591
0.000750044
0.00053392
0.000521031
0.000688877
0.000607926
0.000884934
0.000812524
0.000905189
0.00107495
0.000719208
0.000431995
5.14508e-05
5.78628e-06
3.03495e-06
1.16796e-06
2.6733e-07
5.06247e-08
2.91948e-10
0
0
0
0
0
0
0
0
0
0
0
0
0
0
0
0
0
0
0
0
0
0
0
0
0
0
0
0
0
0
0
0
0
0
0
0
0
0
0
0
0
0
0
0
0
0
0
0
0
2.74568e-06
3.55319e-06
6.18221e-06
1.10479e-05
1.56104e-05
1.44467e-05
1.29903e-05
1.28871e-05
1.51638e-05
1.56375e-05
1.38748e-05
1.55477e-05
1.35757e-05
1.21421e-05
1.1928e-05
1.32168e-05
3.24638e-05
8.03653e-05
8.24049e-05
0.000128063
0.000216744
0.000109503
0.000121563
0.000137721
0.000157019
0.000184007
0.000369445
0.000256047
0.000326518
0.000523572
0.000427646
0.000470323
0.000474549
0.000468801
0.000452611
0.000452856
0.000480628
0.000547113
0.000712572
0.000904581
0.000834282
0.000834345
0.000625097
0.000486544
4.1384e-05
4.74557e-06
2.57022e-06
9.76872e-07
3.46309e-07
6.3448e-08
1.84542e-08
1.74765e-33
0
0
0
0
0
0
0
0
0
0
0
0
0
0
0
0
0
0
0
0
0
0
0
0
0
0
0
0
0
0
0
0
0
0
0
0
0
0
0
0
0
0
0
0
0
0
0
0
2.78476e-06
3.13834e-06
3.62432e-06
5.23039e-06
9.24608e-06
1.3045e-05
1.39853e-05
1.39179e-05
1.32998e-05
1.08495e-05
1.01418e-05
8.89099e-06
7.23458e-06
6.52594e-06
7.05627e-06
8.7356e-06
1.27164e-05
2.48713e-05
4.67519e-05
0.000115876
0.000125439
8.41626e-05
0.000109222
0.000297898
0.00028955
0.000160603
0.000180498
0.000209138
0.000275188
0.000494703
0.000524821
0.000364115
0.000362436
0.000360176
0.000558908
0.000368131
0.000429109
0.000513392
0.000563497
0.000658564
0.000745091
0.000721226
0.000527247
0.000231376
1.17881e-05
4.10755e-06
2.10609e-06
8.79822e-07
3.4731e-07
1.01613e-07
3.95856e-08
2.9127e-08
0
0
0
0
0
0
0
0
0
0
0
0
0
0
0
0
0
0
0
0
0
0
0
0
0
0
0
0
0
0
0
0
0
0
0
0
0
0
0
0
0
0
0
0
0
0
0
0
2.91548e-06
3.23577e-06
3.37569e-06
3.53042e-06
4.62243e-06
6.7288e-06
7.73996e-06
8.20077e-06
7.41844e-06
7.18066e-06
6.22863e-06
5.37221e-06
4.86814e-06
4.06352e-06
3.92315e-06
5.36833e-06
7.78945e-06
1.49327e-05
2.45823e-05
4.15888e-05
5.717e-05
7.2138e-05
9.61666e-05
0.000123595
0.000134401
0.000151782
0.000295732
0.000185045
0.000222658
0.000253071
0.000272256
0.00049607
0.000501419
0.000304303
0.000311729
0.000328662
0.000371302
0.000448065
0.000523016
0.000610449
0.000677975
0.000651625
0.000410399
0.00014844
7.93466e-06
3.48034e-06
1.71914e-06
8.84316e-07
3.02183e-07
6.50919e-08
3.9615e-08
3.71997e-08
0
0
0
0
0
0
0
0
0
0
0
0
0
0
0
0
0
0
0
0
0
0
0
0
0
0
0
0
0
0
0
0
0
0
0
0
0
0
0
0
0
0
0
0
0
0
0
0
3.12175e-06
3.52128e-06
3.57678e-06
3.32182e-06
3.09843e-06
3.23752e-06
3.21172e-06
2.95658e-06
3.53664e-06
3.15032e-06
3.43398e-06
3.4873e-06
3.36742e-06
3.02584e-06
2.51327e-06
2.91539e-06
4.99993e-06
8.08275e-06
1.56678e-05
2.79899e-05
7.72043e-05
7.24731e-05
9.59329e-05
0.000113689
0.000128207
0.00014588
0.000157517
0.000165546
0.000185658
0.000202145
0.00022076
0.000394869
0.000250945
0.000254568
0.00026706
0.000295202
0.000372574
0.000390039
0.000483795
0.000565746
0.000625261
0.000727096
0.000321752
8.36376e-05
6.09074e-06
2.96403e-06
1.42683e-06
6.43188e-07
1.32287e-07
4.91976e-08
3.8913e-08
8.21158e-09
0
0
0
0
0
0
0
0
0
0
0
0
0
0
0
0
0
0
0
0
0
0
0
0
0
0
0
0
0
0
0
0
0
0
0
0
0
0
0
0
0
0
0
0
0
0
0
0
3.40181e-06
3.79185e-06
3.64278e-06
3.50269e-06
2.75186e-06
1.78705e-06
1.67889e-06
1.44266e-06
1.49544e-06
1.66428e-06
1.81755e-06
2.07124e-06
2.22727e-06
2.13285e-06
1.81484e-06
1.65194e-06
2.89285e-06
5.89558e-06
1.21914e-05
2.00804e-05
3.72471e-05
6.65275e-05
0.000102801
0.000110925
0.000120362
0.000227009
0.000239082
0.00014689
0.000152138
0.00016225
0.000178719
0.000196633
0.000207045
0.000216918
0.000234015
0.000265833
0.000308661
0.000359097
0.000405254
0.000522981
0.000569084
0.000501674
0.000230339
6.33373e-05
5.06048e-06
2.56751e-06
1.16888e-06
4.36533e-07
8.47625e-08
4.31979e-08
1.29614e-08
0
0
0
0
0
0
0
0
0
0
0
0
0
0
0
0
0
0
0
0
0
0
0
0
0
0
0
0
0
0
0
0
0
0
0
0
0
0
0
0
0
0
0
0
0
0
0
0
0
3.71083e-06
3.89125e-06
3.98433e-06
3.22733e-06
2.35807e-06
1.85258e-06
8.64721e-07
9.28004e-07
7.66973e-07
7.98331e-07
1.01664e-06
1.31168e-06
1.54901e-06
1.59814e-06
1.39985e-06
1.18432e-06
1.6354e-06
3.81738e-06
8.33014e-06
1.84688e-05
3.08743e-05
5.60234e-05
0.000124339
0.000101111
0.000110861
0.000117549
0.000123768
0.000126009
0.000124271
0.000129738
0.00014307
0.000157836
0.000170928
0.000227775
0.000200562
0.000237439
0.000274427
0.0003271
0.000377049
0.000480807
0.000508362
0.000400942
0.000157299
2.02037e-05
4.35769e-06
2.27614e-06
1.03434e-06
3.04251e-07
6.94748e-08
3.98624e-08
1.05136e-08
0
0
0
0
0
0
0
0
0
0
0
0
0
0
0
0
0
0
0
0
0
0
0
0
0
0
0
0
0
0
0
0
0
0
0
0
0
0
0
0
0
0
0
0
0
0
0
0
0
3.80376e-06
3.96837e-06
3.24567e-06
3.79566e-06
2.51221e-06
1.55627e-06
9.40317e-07
4.69793e-07
3.5974e-07
4.48516e-07
6.5815e-07
9.17651e-07
1.14973e-06
1.28672e-06
1.25313e-06
1.06571e-06
1.07442e-06
2.23677e-06
5.6574e-06
1.47336e-05
2.69473e-05
4.57953e-05
7.13273e-05
8.81837e-05
0.000132991
9.84735e-05
9.90098e-05
0.000146489
0.000100748
0.000102343
0.00011262
0.000125967
0.000140604
0.000157865
0.000178514
0.000208194
0.000238994
0.000296017
0.000348461
0.000381078
0.000408641
0.000331304
9.64175e-05
4.03035e-05
3.84649e-06
1.98753e-06
9.11439e-07
2.08766e-07
5.59473e-08
2.39905e-08
9.48657e-35
0
0
0
0
0
0
0
0
0
0
0
0
0
0
0
0
0
0
0
0
0
0
0
0
0
0
0
0
0
0
0
0
0
0
0
0
0
0
0
0
0
0
0
0
0
0
0
0
0
3.93097e-06
3.8621e-06
3.56596e-06
3.35337e-06
2.46864e-06
1.14913e-06
5.18814e-07
3.09997e-07
2.10853e-07
3.09044e-07
4.87808e-07
7.0098e-07
9.12229e-07
1.09371e-06
1.16287e-06
1.05925e-06
9.17989e-07
1.33875e-06
3.4719e-06
9.27636e-06
2.69723e-05
3.46839e-05
5.16403e-05
6.95654e-05
9.58292e-05
7.74223e-05
7.69328e-05
8.28346e-05
7.8425e-05
7.87396e-05
8.72495e-05
9.84581e-05
0.000113094
0.000131621
0.000150522
0.000175131
0.000205723
0.000265944
0.000320276
0.000348468
0.000541334
0.000255681
5.2233e-05
7.71884e-06
3.34693e-06
1.66899e-06
7.7088e-07
1.38016e-07
4.51424e-08
1.57278e-08
0
0
0
0
0
0
0
0
0
0
0
0
0
0
0
0
0
0
0
0
0
0
0
0
0
0
0
0
0
0
0
0
0
0
0
0
0
0
0
0
0
0
0
0
0
0
0
0
0
0
2.67037e-06
2.45602e-06
2.65597e-06
1.87533e-06
1.39685e-06
8.37392e-07
4.18288e-07
2.1135e-07
1.58841e-07
2.42893e-07
3.97493e-07
5.72675e-07
7.57109e-07
9.38867e-07
1.06939e-06
1.06292e-06
9.2183e-07
9.51352e-07
2.00999e-06
5.36736e-06
1.39193e-05
2.53338e-05
3.48026e-05
4.91268e-05
5.73413e-05
5.9202e-05
7.15418e-05
6.09518e-05
5.85688e-05
5.87489e-05
6.67835e-05
7.56354e-05
9.22857e-05
0.000108433
0.000122108
0.000141642
0.000177489
0.000241701
0.000289785
0.000312686
0.000301563
0.000189489
2.56478e-05
5.72325e-06
2.89266e-06
1.39226e-06
5.89609e-07
9.25584e-08
3.57328e-08
9.30548e-09
0
0
0
0
0
0
0
0
0
0
0
0
0
0
0
0
0
0
0
0
0
0
0
0
0
0
0
0
0
0
0
0
0
0
0
0
0
0
0
0
0
0
0
0
0
0
0
0
0
0
1.66108e-06
9.43511e-07
8.83714e-07
8.31035e-07
6.17298e-07
3.72527e-07
2.07793e-07
1.30785e-07
1.23694e-07
2.12717e-07
3.43615e-07
4.88626e-07
6.45029e-07
8.14061e-07
9.71853e-07
1.04135e-06
9.60024e-07
8.54902e-07
1.22645e-06
2.88371e-06
6.58973e-06
1.65279e-05
2.55016e-05
3.39273e-05
4.14294e-05
5.55819e-05
4.99345e-05
4.28878e-05
4.13941e-05
4.2161e-05
5.42762e-05
5.80732e-05
7.64837e-05
8.55451e-05
9.23821e-05
0.000114215
0.000155028
0.000221177
0.000253995
0.000266563
0.000238985
0.000122997
1.22894e-05
2.08199e-05
2.52887e-06
1.13295e-06
4.60899e-07
7.5328e-08
1.87608e-08
1.48519e-09
8.65378e-23
0
0
0
0
0
0
0
0
0
0
0
0
0
0
0
0
0
0
0
0
0
0
0
0
0
0
0
0
0
0
0
0
0
0
0
0
0
0
0
0
0
0
0
0
0
0
0
0
0
2.50559e-07
1.91521e-07
1.60594e-07
1.50581e-07
1.33061e-07
1.07096e-07
8.426e-08
7.78662e-08
1.04004e-07
1.83772e-07
2.8509e-07
4.03204e-07
5.37212e-07
6.85969e-07
8.46188e-07
9.73233e-07
9.96634e-07
9.02423e-07
8.4848e-07
1.16207e-06
2.13337e-06
5.55526e-06
1.27301e-05
1.95257e-05
2.1993e-05
2.27251e-05
2.21534e-05
2.16125e-05
2.098e-05
2.19104e-05
2.65682e-05
3.5079e-05
3.75369e-05
4.32386e-05
5.54416e-05
7.85126e-05
0.000123596
0.000191151
0.000201451
0.000205354
0.000159481
4.85732e-05
3.39096e-05
3.72291e-06
1.90436e-06
7.13686e-07
1.66389e-07
3.92993e-08
6.63595e-23
0
0
0
0
0
0
0
0
0
0
0
0
0
0
0
0
0
0
0
0
0
0
0
0
0
0
0
0
0
0
0
0
0
0
0
0
0
0
0
0
0
0
0
0
0
0
0
0
0
0
0
2.46826e-08
3.04874e-08
3.61653e-08
3.68272e-08
3.59721e-08
3.59458e-08
3.93869e-08
5.25636e-08
9.00739e-08
1.55811e-07
2.34495e-07
3.14065e-07
4.20057e-07
5.43816e-07
6.77715e-07
8.04946e-07
8.8026e-07
8.62332e-07
7.6453e-07
6.803e-07
7.42709e-07
1.52598e-06
3.2271e-06
5.71184e-06
8.28763e-06
9.36613e-06
9.16269e-06
8.01183e-06
6.70758e-06
6.48697e-06
7.97213e-06
1.08792e-05
1.30757e-05
1.90613e-05
2.92288e-05
5.06941e-05
9.66548e-05
0.000143534
0.000140432
0.000131287
7.07589e-05
4.02177e-05
1.95733e-05
2.73438e-06
1.16262e-06
3.77059e-07
7.6319e-08
9.87328e-09
0
0
0
0
0
0
0
0
0
0
0
0
0
0
0
0
0
0
0
0
0
0
0
0
0
0
0
0
0
0
0
0
0
0
0
0
0
0
0
0
0
0
0
0
0
0
0
0
0
0
0
0
2.80229e-09
7.06794e-09
1.04748e-08
1.31921e-08
1.54281e-08
1.90019e-08
2.69763e-08
4.42214e-08
7.93476e-08
1.32327e-07
1.94152e-07
2.56801e-07
3.2584e-07
4.30599e-07
5.41176e-07
6.44361e-07
7.17423e-07
7.30391e-07
6.73548e-07
5.70715e-07
4.6659e-07
4.61038e-07
7.14594e-07
1.19519e-06
1.71316e-06
2.01309e-06
1.93278e-06
1.49092e-06
1.56859e-06
1.80186e-06
2.5219e-06
4.02402e-06
6.54518e-06
1.02398e-05
1.76115e-05
3.64513e-05
8.20428e-05
9.0938e-05
8.69141e-05
6.21555e-05
1.96367e-05
4.41717e-06
3.37165e-06
1.77266e-06
6.66374e-07
1.78668e-07
4.41882e-08
7.86109e-34
0
0
0
0
0
0
0
0
0
0
0
0
0
0
0
0
0
0
0
0
0
0
0
0
0
0
0
0
0
0
0
0
0
0
0
0
0
0
0
0
0
0
0
0
0
0
0
0
0
0
0
0
5.29321e-10
1.87943e-09
3.73697e-09
5.90878e-09
9.38517e-09
1.52317e-08
2.53754e-08
4.33252e-08
7.34854e-08
1.14992e-07
1.6206e-07
2.11465e-07
2.66567e-07
3.39708e-07
4.38386e-07
5.25102e-07
5.87369e-07
6.07927e-07
5.77843e-07
5.05332e-07
4.10387e-07
3.23141e-07
2.57759e-07
2.32153e-07
2.48385e-07
3.28233e-07
4.07599e-07
4.96088e-07
6.34607e-07
8.0662e-07
1.20505e-06
1.90528e-06
3.74502e-06
6.50377e-06
1.28324e-05
3.05837e-05
5.6372e-05
5.40474e-05
4.13752e-05
1.77462e-05
4.2222e-06
3.55145e-06
2.34455e-06
1.07958e-06
3.93559e-07
8.948e-08
2.36235e-08
0
0
0
0
0
0
0
0
0
0
0
0
0
0
0
0
0
0
0
0
0
0
0
0
0
0
0
0
0
0
0
0
0
0
0
0
0
0
0
0
0
0
0
0
0
0
0
0
0
0
0
0
0
0
7.65739e-10
1.73873e-09
4.24728e-09
9.11945e-09
1.68969e-08
2.96501e-08
4.78679e-08
7.216e-08
1.03305e-07
1.38003e-07
1.75586e-07
2.2192e-07
2.83584e-07
3.62377e-07
4.42207e-07
5.01102e-07
5.26882e-07
5.18462e-07
4.77721e-07
4.10472e-07
3.29768e-07
2.49331e-07
1.82098e-07
1.3873e-07
1.27767e-07
1.446e-07
1.77947e-07
2.47245e-07
3.61084e-07
6.29388e-07
1.14062e-06
2.62455e-06
5.00792e-06
1.12642e-05
2.88809e-05
2.98954e-05
2.65627e-05
1.29526e-05
3.63419e-06
3.19395e-06
2.95889e-06
1.58909e-06
5.90261e-07
1.59536e-07
4.80926e-08
1.59476e-22
0
0
0
0
0
0
0
0
0
0
0
0
0
0
0
0
0
0
0
0
0
0
0
0
0
0
0
0
0
0
0
0
0
0
0
0
0
0
0
0
0
0
0
0
0
0
0
0
0
0
0
0
0
0
9.27456e-11
2.36286e-09
5.92702e-09
1.28641e-08
2.31109e-08
3.49047e-08
5.20986e-08
7.01359e-08
9.31272e-08
1.18596e-07
1.66348e-07
2.33397e-07
3.19743e-07
4.06911e-07
4.92688e-07
5.51372e-07
5.75747e-07
5.64083e-07
5.18582e-07
4.45687e-07
3.55717e-07
2.60763e-07
1.72819e-07
1.03971e-07
6.51835e-08
4.91715e-08
4.88096e-08
8.69478e-08
1.95769e-07
4.3256e-07
9.48758e-07
2.18166e-06
5.08147e-06
1.10215e-05
1.48243e-05
1.39201e-05
8.25386e-06
3.75842e-06
2.54159e-06
3.11181e-06
1.90663e-06
8.62213e-07
3.0537e-07
7.12549e-08
1.04233e-08
0
0
0
0
0
0
0
0
0
0
0
0
0
0
0
0
0
0
0
0
0
0
0
0
0
0
0
0
0
0
0
0
0
0
0
0
0
0
0
0
0
0
0
0
0
0
0
0
0
0
0
0
0
0
0
7.85133e-11
3.54102e-09
9.14593e-09
1.73754e-08
2.43844e-08
3.33364e-08
4.06256e-08
5.49308e-08
7.7541e-08
1.33872e-07
2.1405e-07
3.04692e-07
4.15875e-07
5.2188e-07
6.07753e-07
6.63754e-07
6.79227e-07
6.52542e-07
5.87463e-07
4.93842e-07
3.829e-07
2.6842e-07
1.63727e-07
8.25202e-08
3.73756e-08
2.0628e-08
1.20207e-08
5.12161e-08
1.643e-07
3.71051e-07
9.49818e-07
1.86591e-06
3.57659e-06
5.81029e-06
7.02218e-06
4.47809e-06
1.99216e-06
2.16657e-06
2.21256e-06
1.97624e-06
1.12468e-06
4.36977e-07
1.14344e-07
3.79257e-08
0
0
0
0
0
0
0
0
0
0
0
0
0
0
0
0
0
0
0
0
0
0
0
0
0
0
0
0
0
0
0
0
0
0
0
0
0
0
0
0
0
0
0
0
0
0
0
0
0
0
0
0
0
0
0
0
0
2.56789e-09
7.32513e-09
1.40465e-08
1.70048e-08
1.3812e-08
1.09554e-08
2.06135e-08
6.78217e-08
1.68062e-07
3.00192e-07
4.3179e-07
5.70571e-07
7.0693e-07
7.87875e-07
8.3065e-07
8.2647e-07
7.71072e-07
6.73153e-07
5.47058e-07
4.0831e-07
2.7243e-07
1.54665e-07
6.99881e-08
2.72204e-08
1.45796e-08
8.75076e-09
7.11333e-08
1.72926e-07
3.47261e-07
5.43725e-07
1.22992e-06
2.16253e-06
2.81642e-06
2.55086e-06
1.34156e-06
1.25564e-06
2.02509e-06
1.54048e-06
1.11697e-06
5.29535e-07
1.88475e-07
6.20061e-08
2.1237e-08
0
0
0
0
0
0
0
0
0
0
0
0
0
0
0
0
0
0
0
0
0
0
0
0
0
0
0
0
0
0
0
0
0
0
0
0
0
0
0
0
0
0
0
0
0
0
0
0
0
0
0
0
0
0
0
0
0
0
3.59847e-09
5.72783e-09
1.5171e-09
3.05265e-09
5.92615e-09
3.25905e-09
4.46384e-08
1.90351e-07
4.02807e-07
6.0362e-07
7.87062e-07
9.54612e-07
1.02299e-06
1.03961e-06
1.00099e-06
9.03722e-07
7.63879e-07
5.99747e-07
4.31073e-07
2.74769e-07
1.46071e-07
5.84925e-08
1.75599e-08
7.29849e-09
3.29217e-08
9.41963e-08
1.71735e-07
2.19548e-07
3.6919e-07
7.14664e-07
9.67421e-07
1.08877e-06
8.7684e-07
1.01092e-06
1.25891e-06
1.53062e-06
9.51279e-07
4.94373e-07
2.36355e-07
7.18367e-08
2.84094e-08
0
0
0
0
0
0
0
0
0
0
0
0
0
0
0
0
0
0
0
0
0
0
0
0
0
0
0
0
0
0
0
0
0
0
0
0
0
0
0
0
0
0
0
0
0
0
0
0
0
0
0
0
0
0
0
0
0
0
0
9.10529e-10
1.31613e-09
3.37974e-09
3.29359e-09
3.8939e-09
3.77796e-09
2.48384e-08
1.67751e-07
4.49251e-07
7.52121e-07
1.02234e-06
1.21923e-06
1.27361e-06
1.25825e-06
1.17822e-06
1.03631e-06
8.52156e-07
6.51236e-07
4.55841e-07
2.82888e-07
1.45649e-07
5.47973e-08
1.44422e-08
2.19597e-08
6.1678e-08
9.44462e-08
1.11321e-07
1.44002e-07
2.9895e-07
4.75083e-07
6.58295e-07
6.38767e-07
8.82268e-07
1.13379e-06
1.06629e-06
9.87186e-07
4.97751e-07
2.36736e-07
8.02725e-08
3.28414e-08
6.18418e-23
0
0
0
0
0
0
0
0
0
0
0
0
0
0
0
0
0
0
0
0
0
0
0
0
0
0
0
0
0
0
0
0
0
0
0
0
0
0
0
0
0
0
0
0
0
0
0
0
0
0
0
0
0
0
0
0
0
0
0
0
6.5871e-10
1.58245e-09
3.84347e-09
3.84291e-09
3.82364e-09
1.55296e-08
1.08016e-07
3.99374e-07
7.71551e-07
1.16107e-06
1.42791e-06
1.49057e-06
1.45086e-06
1.33568e-06
1.15732e-06
9.35801e-07
7.06123e-07
4.91476e-07
3.07005e-07
1.635e-07
7.07402e-08
3.11381e-08
3.18324e-08
4.90145e-08
7.39025e-08
1.27472e-07
2.60347e-07
5.19974e-07
7.63879e-07
1.13618e-06
8.65638e-07
1.10792e-06
1.06599e-06
8.02557e-07
5.49004e-07
2.68521e-07
8.68375e-08
4.0976e-08
2.46878e-22
0
0
0
0
0
0
0
0
0
0
0
0
0
0
0
0
0
0
0
0
0
0
0
0
0
0
0
0
0
0
0
0
0
0
0
0
0
0
0
0
0
0
0
0
0
0
0
0
0
0
0
0
0
0
0
0
0
0
0
0
0
0
1.13137e-09
2.39268e-09
2.86187e-09
2.71467e-09
1.26068e-08
5.16038e-08
2.80526e-07
6.92792e-07
1.14673e-06
1.51299e-06
1.62959e-06
1.59088e-06
1.46173e-06
1.25965e-06
1.01756e-06
7.70573e-07
5.47362e-07
3.59278e-07
2.1268e-07
1.12579e-07
6.45426e-08
5.75775e-08
7.85494e-08
1.42059e-07
2.85636e-07
5.52647e-07
1.05916e-06
1.13516e-06
1.22055e-06
1.03043e-06
9.90361e-07
7.85881e-07
4.69489e-07
2.70931e-07
1.04598e-07
5.0604e-08
9.67469e-09
0
0
0
0
0
0
0
0
0
0
0
0
0
0
0
0
0
0
0
0
0
0
0
0
0
0
0
0
0
0
0
0
0
0
0
0
0
0
0
0
0
0
0
0
0
0
0
0
0
0
0
0
0
0
0
0
0
0
0
0
0
0
0
0
0
1.94203e-09
1.26956e-09
7.2806e-09
3.05025e-08
1.43775e-07
5.10327e-07
9.67032e-07
1.43323e-06
1.66351e-06
1.661e-06
1.54047e-06
1.34157e-06
1.09636e-06
8.49973e-07
6.32891e-07
4.52627e-07
3.08851e-07
1.93934e-07
1.38478e-07
1.44053e-07
1.89971e-07
3.15409e-07
5.58337e-07
9.03436e-07
1.3303e-06
1.32923e-06
1.07593e-06
9.95419e-07