/*--------------------------------*- C++ -*----------------------------------*\
  =========                 |
  \\      /  F ield         | OpenFOAM: The Open Source CFD Toolbox
   \\    /   O peration     | Website:  https://openfoam.org
    \\  /    A nd           | Version:  6
     \\/     M anipulation  |
\*---------------------------------------------------------------------------*/
FoamFile
{
    version     2.0;
    format      ascii;
    class       volScalarField;
    location    "0.005";
    object      CH2CHO;
}
// * * * * * * * * * * * * * * * * * * * * * * * * * * * * * * * * * * * * * //

dimensions      [0 0 0 0 0 0 0];

internalField   nonuniform List<scalar> 
8000
(
5.76918e-23
1.7945e-18
1.17986e-17
1.25481e-16
1.93355e-15
3.09867e-14
3.42259e-13
2.07245e-12
7.27274e-12
1.83058e-11
3.61118e-11
6.02361e-11
9.28429e-11
1.22949e-10
1.23944e-10
1.20385e-10
1.65094e-10
3.69834e-10
1.23816e-09
6.66224e-09
4.84097e-08
3.19279e-07
5.87974e-07
6.27567e-07
5.53577e-07
5.00175e-07
4.66487e-07
4.13421e-07
3.3933e-07
2.58076e-07
1.96643e-07
1.62936e-07
1.264e-07
1.18725e-07
9.86557e-08
9.00329e-08
8.48719e-08
8.08946e-08
7.96965e-08
7.49874e-08
8.25584e-08
7.66383e-08
5.65349e-08
4.99453e-08
8.63285e-08
1.81821e-07
2.99532e-07
6.02583e-07
8.96444e-07
3.93548e-07
3.22466e-08
2.48399e-09
3.67933e-11
0
0
0
0
0
0
0
0
0
0
0
0
0
0
0
0
0
0
0
0
0
0
0
0
0
0
0
0
0
0
0
0
0
0
0
0
0
0
0
0
0
0
0
0
0
0
0
9.27327e-22
1.66615e-17
4.63047e-17
4.30359e-16
4.62156e-15
6.9777e-14
8.55461e-13
6.16788e-12
2.61458e-11
6.89496e-11
1.32123e-10
2.00444e-10
2.85734e-10
4.11601e-10
3.80485e-10
2.80076e-10
3.20977e-10
6.68298e-10
1.81202e-09
7.71325e-09
5.46021e-08
4.53887e-07
6.6375e-07
4.97581e-07
5.55187e-07
5.60217e-07
4.59799e-07
3.97431e-07
3.50164e-07
2.57038e-07
1.92762e-07
1.60615e-07
1.2612e-07
1.1933e-07
9.93573e-08
9.42098e-08
8.43737e-08
8.48529e-08
7.88578e-08
9.01918e-08
8.9639e-08
7.57817e-08
5.60789e-08
4.96428e-08
8.559e-08
1.92935e-07
3.37463e-07
6.49253e-07
9.60653e-07
4.00157e-07
4.47171e-08
3.4773e-09
1.87505e-11
0
0
0
0
0
0
0
0
0
0
0
0
0
0
0
0
0
0
0
0
0
0
0
0
0
0
0
0
0
0
0
0
0
0
0
0
0
0
0
0
0
0
0
0
0
0
0
6.75036e-18
7.59291e-09
6.53173e-18
2.00375e-08
2.17707e-14
2.54919e-13
2.84763e-12
2.69931e-11
9.13884e-08
5.24778e-10
1.07642e-09
1.43833e-09
1.61061e-09
2.45087e-09
1.38568e-07
1.12725e-07
9.74749e-10
2.11931e-09
4.24491e-09
1.04823e-08
4.33545e-08
2.47062e-07
5.99462e-07
6.34809e-07
6.0046e-07
5.10913e-07
3.49269e-07
3.53091e-07
3.04134e-07
2.25128e-07
1.78461e-07
1.5607e-07
1.26115e-07
1.20902e-07
1.00561e-07
9.6177e-08
8.70094e-08
8.31757e-08
8.23466e-08
8.79632e-08
8.73321e-08
8.13035e-08
5.89885e-08
5.1304e-08
7.21352e-08
2.07939e-07
2.90152e-06
6.69001e-07
9.0415e-07
2.51679e-07
2.69042e-08
2.17921e-09
7.67556e-28
0
0
0
0
0
0
0
0
0
0
0
0
0
0
0
0
0
0
0
0
0
0
0
0
0
0
0
0
0
0
0
0
0
0
0
0
0
0
0
0
0
0
0
0
0
0
0
9.5505e-22
2.73389e-16
8.76477e-15
8.31791e-14
4.02812e-13
1.25594e-12
7.65877e-12
6.46778e-11
5.50011e-10
1.6033e-07
1.15298e-08
1.30251e-08
1.17489e-08
1.72151e-07
1.7914e-09
1.38491e-09
2.41538e-09
9.94842e-09
3.12539e-07
2.1586e-08
5.26726e-08
7.29196e-07
5.24529e-07
6.09129e-07
6.38247e-07
4.91515e-07
3.91238e-07
3.21874e-07
2.489e-07
1.24754e-06
1.69668e-07
1.54877e-07
1.2773e-07
1.23621e-07
1.01694e-07
9.48967e-08
8.91761e-08
8.62049e-08
7.92668e-08
9.29121e-08
8.4115e-08
7.85211e-08
5.73446e-08
5.03924e-08
7.06542e-08
1.98417e-07
3.75672e-07
5.43169e-07
4.3025e-07
1.08632e-07
1.13051e-08
7.61772e-10
0
0
0
0
0
0
0
0
0
0
0
0
0
0
0
0
0
0
0
0
0
0
0
0
0
0
0
0
0
0
0
0
0
0
0
0
0
0
0
0
0
0
0
0
0
0
0
0
1.35406e-19
3.22549e-16
3.71753e-08
9.30871e-13
6.15365e-08
6.79585e-12
1.71317e-11
5.7045e-08
9.46279e-10
1.79806e-07
1.01553e-06
1.02023e-06
6.39475e-07
8.30947e-09
2.92303e-09
1.43242e-07
7.37985e-09
3.94496e-07
4.2961e-08
5.48906e-08
5.77856e-07
7.60933e-07
4.03176e-07
1.47192e-06
1.82176e-06
5.14587e-07
3.8731e-07
3.55351e-07
3.0399e-07
2.29681e-07
1.81752e-07
1.60238e-07
1.31405e-07
1.12e-07
1.06493e-07
2.1955e-07
9.73667e-08
8.82761e-08
1.01193e-07
8.82723e-08
8.01724e-08
7.51867e-08
6.80451e-08
5.19037e-08
6.90663e-08
1.91795e-07
3.6796e-07
4.31967e-07
2.22912e-07
4.27441e-08
5.23327e-09
1.12553e-10
0
0
0
0
0
0
0
0
0
0
0
0
0
0
0
0
0
0
0
0
0
0
0
0
0
0
0
0
0
0
0
0
0
0
0
0
0
0
0
0
0
0
0
0
0
0
0
0
4.92656e-18
5.61064e-17
3.20214e-13
3.45372e-08
3.64427e-11
4.65567e-08
3.25386e-11
8.53782e-11
4.15247e-10
2.82709e-09
1.24374e-08
1.30777e-08
6.98745e-09
3.21806e-09
2.9374e-09
6.50783e-09
2.40997e-08
5.98485e-07
1.58205e-07
8.70576e-07
1.82516e-07
9.37865e-07
4.09387e-07
1.57077e-06
2.2958e-06
5.16463e-07
4.12269e-07
1.38382e-06
1.52999e-06
2.21225e-07
1.84873e-07
1.64136e-07
6.22388e-07
1.14387e-07
1.08408e-07
9.89779e-08
9.30877e-08
1.01329e-07
9.54735e-08
8.28359e-08
7.56317e-08
7.14501e-08
1.08073e-07
5.06218e-08
6.75941e-08
1.92365e-07
3.90073e-07
4.23064e-07
1.46797e-07
2.74651e-08
5.6244e-09
1.09304e-09
0
0
0
0
0
0
0
0
0
0
0
0
0
0
0
0
0
0
0
0
0
0
0
0
0
0
0
0
0
0
0
0
0
0
0
0
0
0
0
0
0
0
0
0
0
0
0
0
3.42689e-18
8.24297e-16
7.36039e-14
8.66815e-13
4.60081e-12
1.23604e-11
6.3259e-08
1.47811e-10
4.1291e-10
9.19998e-10
1.16858e-07
1.37841e-07
1.24792e-07
2.93926e-09
5.76993e-09
1.7258e-08
4.7858e-08
1.54005e-07
1.2551e-06
3.09974e-07
1.02243e-06
3.35387e-07
1.1716e-06
6.28528e-07
1.05749e-06
4.61178e-07
4.53849e-07
3.6567e-07
2.8118e-07
2.23343e-07
1.96651e-07
1.78457e-07
1.42787e-07
1.15851e-07
1.05851e-07
1.00294e-07
9.37638e-08
1.04209e-07
8.90267e-08
7.25633e-08
7.06624e-08
6.73558e-08
6.93566e-08
4.9514e-08
6.62937e-08
1.9792e-07
4.28582e-07
5.32446e-07
1.56796e-07
2.48422e-08
7.46587e-09
1.61726e-09
0
0
0
0
0
0
0
0
0
0
0
0
0
0
0
0
0
0
0
0
0
0
0
0
0
0
0
0
0
0
0
0
0
0
0
0
0
0
0
0
0
0
0
0
0
0
0
0
9.10872e-09
1.5425e-08
8.56569e-14
1.27494e-12
5.27378e-12
5.40906e-08
1.30303e-10
9.4196e-10
1.49104e-07
2.061e-09
1.78675e-09
1.88614e-09
2.76554e-09
8.75317e-09
2.60327e-07
3.9977e-07
8.29991e-07
1.11876e-06
5.54516e-07
1.66958e-06
4.5047e-07
4.68682e-07
1.39273e-06
6.23793e-07
5.13422e-07
2.5404e-06
5.18884e-07
4.0734e-07
2.90941e-07
2.40421e-07
2.16663e-07
1.65387e-07
1.32172e-07
1.14636e-07
1.05608e-07
1.00606e-07
1.05464e-07
9.6134e-08
8.19907e-08
7.12079e-08
6.52818e-08
6.29302e-08
6.64954e-08
5.14286e-08
6.52216e-08
2.0614e-07
4.7165e-07
6.30067e-07
1.44056e-07
7.08717e-10
1.40943e-11
1.10816e-09
0
0
0
0
0
0
0
0
0
0
0
0
0
0
0
0
0
0
0
0
0
0
0
0
0
0
0
0
0
0
0
0
0
0
0
0
0
0
0
0
0
0
0
0
0
0
0
0
9.27426e-09
2.00465e-08
4.57668e-13
1.18667e-11
4.38215e-08
8.40351e-11
8.21013e-08
5.00833e-09
3.21384e-07
9.54984e-09
2.02089e-07
1.88949e-07
8.44146e-09
1.90499e-08
3.75036e-08
5.7491e-07
9.62661e-07
1.43595e-06
1.24707e-06
5.63644e-07
5.62371e-07
1.53559e-06
5.8708e-07
1.83248e-06
1.97194e-06
6.02362e-07
5.57911e-07
4.13348e-07
2.92922e-07
2.6042e-07
3.94001e-07
3.28988e-07
1.31807e-07
1.18619e-07
1.09627e-07
9.87514e-08
1.05847e-07
8.73584e-08
7.44832e-08
6.5085e-08
6.37132e-08
6.38565e-08
6.35338e-08
5.06285e-08
4.71633e-07
7.48675e-07
5.36638e-07
5.7258e-07
1.22053e-07
1.36665e-08
6.12529e-09
7.17533e-10
0
0
0
0
0
0
0
0
0
0
0
0
0
0
0
0
0
0
0
0
0
0
0
0
0
0
0
0
0
0
0
0
0
0
0
0
0
0
0
0
0
0
0
0
0
0
0
0
8.98998e-19
1.84173e-08
2.98628e-08
4.00917e-08
5.73526e-11
7.72616e-08
1.06977e-09
4.5377e-09
1.39181e-08
2.84155e-07
1.91099e-08
2.98099e-08
3.7236e-07
5.29164e-07
9.97898e-07
7.91778e-07
2.04025e-07
4.82833e-07
5.1952e-07
5.58306e-07
6.01187e-07
6.04937e-07
6.27275e-07
6.23956e-07
6.15021e-07
6.0447e-07
5.20708e-07
3.82632e-07
2.83683e-07
1.15723e-06
1.94968e-07
1.50888e-07
3.55051e-07
1.11272e-07
1.08038e-07
1.47124e-07
9.53212e-08
7.79776e-08
6.66746e-08
5.88996e-08
7.16675e-08
5.4612e-08
6.07058e-08
5.01209e-08
6.83021e-08
2.2982e-07
2.5179e-06
5.09244e-07
9.64e-08
1.07041e-08
6.12696e-09
7.25658e-10
0
0
0
0
0
0
0
0
0
0
0
0
0
0
0
0
0
0
0
0
0
0
0
0
0
0
0
0
0
0
0
0
0
0
0
0
0
0
0
0
0
0
0
0
0
0
0
0
1.06117e-08
9.6564e-13
1.42541e-11
8.67536e-11
4.11505e-10
1.51846e-07
1.76359e-07
2.77491e-07
5.21142e-08
7.24839e-08
1.02751e-07
5.53015e-07
1.70661e-07
7.34583e-07
2.12909e-07
2.29355e-07
3.01803e-07
1.92106e-06
1.90593e-06
1.17214e-06
5.89551e-07
1.88916e-06
5.9044e-07
1.63245e-06
1.88554e-06
5.39324e-07
4.49542e-07
3.49593e-07
2.8136e-07
2.48503e-07
1.90295e-07
1.47044e-07
1.29337e-07
1.11873e-07
1.05042e-07
1.48579e-07
8.47878e-08
1.26196e-07
5.88132e-08
5.25031e-08
4.99374e-08
5.04967e-08
5.78745e-08
4.70808e-08
7.09796e-08
2.49238e-07
5.7742e-07
4.44579e-07
7.91986e-08
5.80456e-11
4.81722e-09
7.36102e-10
0
0
0
0
0
0
0
0
0
0
0
0
0
0
0
0
0
0
0
0
0
0
0
0
0
0
0
0
0
0
0
0
0
0
0
0
0
0
0
0
0
0
0
0
0
0
0
0
5.34093e-14
7.34028e-11
8.33133e-10
1.94578e-07
1.2257e-08
3.16084e-07
3.60132e-07
1.3355e-07
3.28413e-07
3.48486e-07
3.75427e-07
3.96339e-07
4.5292e-07
1.02344e-06
4.23471e-07
4.30203e-07
4.78958e-07
1.96569e-06
1.99075e-06
1.78473e-06
5.70569e-07
5.56343e-07
5.11698e-07
4.85521e-07
4.88051e-07
4.57012e-07
3.84558e-07
1.40847e-06
2.79433e-07
4.77961e-07
1.68135e-07
1.45403e-07
1.23932e-07
2.45609e-07
9.40709e-08
9.59302e-08
1.3452e-07
5.93916e-08
5.10283e-08
4.60248e-08
4.48698e-08
4.66478e-08
1.10527e-07
4.71279e-08
7.48317e-08
9.54633e-07
1.98641e-06
1.33682e-07
6.32632e-08
1.24279e-08
6.8473e-12
8.90034e-10
6.6681e-12
0
0
0
0
0
0
0
0
0
0
0
0
0
0
0
0
0
0
0
0
0
0
0
0
0
0
0
0
0
0
0
0
0
0
0
0
0
0
0
0
0
0
0
0
0
0
0
9.33091e-12
1.19242e-08
6.44807e-08
4.84543e-07
6.56933e-07
8.42329e-07
3.46294e-07
1.15306e-06
5.03964e-07
1.66778e-06
1.27261e-06
1.17618e-06
5.89752e-07
1.19206e-06
6.10231e-07
6.18901e-07
1.8036e-06
5.99191e-07
5.51576e-07
1.63383e-06
5.05511e-07
4.8385e-07
4.536e-07
1.03251e-06
4.24023e-07
3.85981e-07
3.33507e-07
1.16157e-06
2.33741e-07
1.86938e-07
1.59088e-07
1.37589e-07
1.22876e-07
1.01209e-07
8.23291e-08
8.32607e-08
1.60762e-07
1.59557e-07
4.36006e-08
3.97086e-08
3.99595e-08
8.98082e-08
1.19665e-07
4.75182e-08
7.9869e-08
1.40143e-06
6.41038e-07
9.03844e-08
4.99501e-08
1.26265e-08
2.81091e-09
9.01742e-10
5.50026e-10
2.11499e-11
0
0
0
0
0
0
0
0
0
0
0
0
0
0
0
0
0
0
0
0
0
0
0
0
0
0
0
0
0
0
0
0
0
0
0
0
0
0
0
0
0
0
0
0
0
0
3.50559e-09
1.03153e-06
1.20593e-06
1.31625e-06
5.8451e-07
1.82872e-06
1.6519e-06
6.17131e-07
5.5203e-07
5.55554e-07
5.18209e-07
5.11296e-07
5.23485e-07
5.50202e-07
5.91051e-07
6.35655e-07
6.2496e-07
2.05574e-06
5.44365e-07
1.21632e-06
8.69781e-07
4.31754e-07
4.10141e-07
3.9597e-07
1.13982e-06
3.4107e-07
1.12963e-06
2.76895e-07
2.22092e-07
1.75351e-07
1.56739e-07
1.34299e-07
2.35306e-07
9.37367e-08
7.0184e-08
6.41654e-08
5.61018e-08
1.96261e-07
3.65572e-08
3.38101e-08
3.52941e-08
3.9682e-08
4.66281e-08
4.59748e-08
1.04273e-07
2.90829e-07
6.01707e-07
2.31037e-07
3.78369e-08
9.97129e-09
2.0376e-09
9.20261e-10
7.37348e-10
5.60709e-10
1.26978e-11
0
0
0
0
0
0
0
0
0
0
0
0
0
0
0
0
0
0
0
0
0
0
0
0
0
0
0
0
0
0
0
0
0
0
0
0
0
0
0
0
0
0
0
0
0
1.00184e-06
2.05454e-07
1.109e-06
1.58146e-06
4.64764e-07
1.29171e-06
5.30569e-07
1.79023e-06
1.15817e-06
4.92662e-07
1.17414e-06
4.53172e-07
1.42746e-06
4.55665e-07
1.41412e-06
5.16999e-07
5.61154e-07
5.53542e-07
5.15532e-07
8.90272e-07
8.90863e-07
9.02471e-07
3.7163e-07
3.59013e-07
3.41074e-07
1.05717e-06
2.85599e-07
2.28113e-07
1.89557e-07
3.10416e-07
2.85174e-07
2.56017e-07
2.28339e-07
2.41063e-07
2.51102e-07
2.51615e-07
3.40798e-08
2.61277e-08
2.15449e-07
2.62452e-08
1.59277e-07
3.64692e-08
1.52464e-07
3.08212e-07
1.15329e-07
2.23195e-06
5.43544e-07
1.81581e-07
3.1631e-08
8.6268e-09
1.77736e-09
9.07481e-10
7.78775e-10
6.41399e-10
4.08325e-10
0
0
0
0
0
0
0
0
0
0
0
0
0
0
0
0
0
0
0
0
0
0
0
0
0
0
0
0
0
0
0
0
0
0
0
0
0
0
0
0
0
0
0
0
0
1.3541e-06
4.45007e-07
4.47848e-07
3.30375e-07
4.37602e-07
9.25232e-07
4.38197e-07
4.46378e-07
8.01723e-07
4.45403e-07
4.45065e-07
3.92138e-07
3.81904e-07
4.00454e-07
3.90789e-07
4.00417e-07
4.40398e-07
4.70595e-07
4.55649e-07
8.91109e-07
3.77041e-07
3.44795e-07
3.29087e-07
3.21685e-07
7.91109e-07
2.50451e-07
2.28611e-07
1.90513e-07
1.66251e-07
1.47618e-07
2.91139e-07
1.04196e-07
8.28217e-08
5.85517e-08
4.32421e-08
3.00645e-07
3.09269e-07
1.87987e-08
2.56199e-07
2.16948e-07
1.89177e-08
1.38332e-07
1.8268e-07
4.69609e-08
1.5371e-07
3.77668e-07
4.80648e-07
1.35692e-07
2.46866e-08
7.64559e-09
1.55807e-09
8.13964e-10
7.23808e-10
6.68106e-10
5.48389e-10
0
0
0
0
0
0
0
0
0
0
0
0
0
0
0
0
0
0
0
0
0
0
0
0
0
0
0
0
0
0
0
0
0
0
0
0
0
0
0
0
0
0
0
0
0
1.15233e-08
4.85797e-07
3.6787e-07
3.18611e-07
3.21717e-07
4.07259e-07
3.77275e-07
3.83466e-07
4.26705e-07
3.23458e-07
3.72958e-07
1.39188e-07
3.17491e-07
2.97253e-07
3.19155e-07
3.05757e-07
3.25773e-07
3.64967e-07
3.83256e-07
3.63527e-07
3.16687e-07
2.85975e-07
2.78063e-07
6.51711e-07
3.14514e-07
2.02635e-07
3.45589e-07
3.4906e-07
3.35004e-07
3.21092e-07
9.13287e-08
7.55944e-08
5.48128e-08
4.0536e-08
3.46455e-07
3.66243e-07
3.67589e-07
1.16339e-08
1.06203e-08
2.55308e-07
2.14767e-07
2.19076e-08
2.34608e-07
4.95448e-08
8.09292e-07
2.20932e-06
3.377e-07
9.99415e-08
2.01665e-08
6.54946e-09
1.09205e-09
1.07808e-10
4.42855e-12
1.86561e-11
9.73612e-14
0
0
0
0
0
0
0
0
0
0
0
0
0
0
0
0
0
0
0
0
0
0
0
0
0
0
0
0
0
0
0
0
0
0
0
0
0
0
0
0
0
0
0
0
0
6.219e-08
5.0049e-07
2.26051e-07
1.9038e-07
1.94258e-07
8.09324e-07
2.60649e-07
2.63475e-07
3.06446e-07
2.22133e-07
2.13502e-07
2.0243e-07
2.29877e-07
5.49155e-07
1.71539e-07
2.10747e-07
7.98473e-07
2.76114e-07
8.83609e-07
2.91785e-07
2.53578e-07
8.86374e-07
2.25778e-07
1.97213e-07
1.89971e-07
1.68664e-07
1.47689e-07
1.1787e-07
9.7931e-08
8.16097e-08
6.72252e-08
3.44534e-07
3.54391e-07
2.68443e-08
4.17867e-07
1.31774e-08
9.54396e-09
6.94531e-09
6.75973e-09
8.77392e-09
2.50328e-07
2.23669e-07
2.96429e-08
5.08266e-08
9.75038e-07
1.94014e-06
3.38505e-07
7.49035e-08
1.65207e-08
2.80527e-09
7.15705e-11
0
0
0
0
0
0
0
0
0
0
0
0
0
0
0
0
0
0
0
0
0
0
0
0
0
0
0
0
0
0
0
0
0
0
0
0
0
0
0
0
0
0
0
0
0
0
0
0
0
7.35919e-08
3.1231e-07
2.90545e-07
7.47622e-08
4.44405e-08
9.16868e-08
8.55366e-08
8.85193e-08
1.11545e-07
8.75203e-08
5.15275e-08
2.97164e-08
5.51339e-07
5.2009e-07
5.16194e-08
8.34721e-08
1.24177e-07
1.80517e-07
2.08136e-07
2.12847e-07
1.85602e-07
1.66383e-07
1.6892e-07
1.70116e-07
1.42001e-07
2.90172e-07
9.96976e-08
3.83245e-07
7.33817e-08
5.47249e-08
3.68482e-07
3.78196e-07
2.53216e-08
4.26064e-07
4.22005e-07
8.55344e-09
5.74204e-09
4.24672e-09
3.41558e-07
5.97459e-09
2.85715e-07
1.58183e-08
2.8446e-08
6.00659e-07
1.37103e-06
4.83535e-07
2.72336e-07
5.38828e-08
1.17387e-08
1.80163e-09
0
0
0
0
0
0
0
0
0
0
0
0
0
0
0
0
0
0
0
0
0
0
0
0
0
0
0
0
0
0
0
0
0
0
0
0
0
0
0
0
0
0
0
0
0
0
0
0
0
0
7.50957e-08
1.64619e-07
3.61657e-07
3.58324e-07
1.3629e-07
5.03827e-08
4.45842e-08
2.99814e-08
1.14658e-08
8.86222e-09
7.00514e-09
5.88684e-09
5.91449e-09
4.54389e-09
1.54246e-10
7.09538e-09
3.37004e-08
8.30907e-08
1.27174e-07
8.86119e-07
1.25214e-07
9.22777e-07
1.19458e-07
1.20164e-07
1.13057e-07
7.96443e-08
6.60721e-08
5.72339e-08
4.75873e-08
3.6008e-07
3.8612e-07
2.48449e-08
4.37395e-07
4.50817e-07
8.27664e-09
5.38521e-09
3.54687e-07
2.40435e-09
2.3797e-07
4.2644e-09
7.48502e-09
3.22403e-07
2.9263e-08
7.24365e-08
1.94741e-06
4.53681e-07
2.15056e-07
3.79452e-08
8.11895e-09
1.49369e-09
5.79625e-12
0
0
0
0
0
0
0
0
0
0
0
0
0
0
0
0
0
0
0
0
0
0
0
0
0
0
0
0
0
0
0
0
0
0
0
0
0
0
0
0
0
0
0
0
0
0
0
0
0
7.53656e-08
9.27655e-08
1.75111e-07
3.14538e-07
3.97078e-07
3.09546e-07
2.52908e-07
1.9184e-07
1.32111e-07
1.18246e-07
1.0609e-07
8.75155e-08
6.73417e-08
3.76648e-08
1.33866e-08
2.94753e-09
3.18388e-09
6.13496e-07
6.09337e-08
6.56339e-08
8.72048e-07
7.40469e-08
7.40877e-08
7.56291e-08
7.31593e-08
5.95924e-08
9.1262e-07
3.79434e-08
3.02264e-08
5.04541e-07
2.45387e-08
1.68442e-08
1.2397e-08
8.86401e-09
5.2675e-09
3.23728e-09
1.62702e-09
1.08912e-09
2.04487e-07
2.4137e-07
6.43486e-09
1.39528e-08
3.18139e-08
8.92708e-07
2.29287e-06
4.13725e-07
1.64988e-07
2.93301e-08
7.69231e-09
1.55404e-09
6.11562e-10
0
0
0
0
0
0
0
0
0
0
0
0
0
0
0
0
0
0
0
0
0
0
0
0
0
0
0
0
0
0
0
0
0
0
0
0
0
0
0
0
0
0
0
0
0
0
0
0
0
7.52622e-08
7.73753e-08
9.24536e-08
1.4521e-07
2.68082e-07
3.70212e-07
3.85939e-07
3.71319e-07
3.35438e-07
3.06877e-07
2.77951e-07
2.38915e-07
1.78564e-07
1.00429e-07
4.00073e-08
1.06127e-08
9.5882e-10
3.87175e-09
2.0595e-08
6.85967e-07
7.30114e-07
4.51413e-08
4.61015e-08
9.93795e-07
9.97772e-07
3.54285e-08
3.15913e-08
2.80459e-08
2.09871e-08
8.19729e-07
8.09241e-07
1.36685e-08
1.00483e-08
7.2889e-09
6.54924e-07
2.42737e-09
5.89789e-10
3.24351e-07
3.00799e-07
2.40856e-09
5.9833e-09
1.39602e-08
3.6518e-08
1.25301e-07
2.90288e-07
3.73332e-07
1.21226e-07
2.32561e-08
6.5267e-09
1.96748e-09
6.96808e-10
4.75909e-10
0
0
0
0
0
0
0
0
0
0
0
0
0
0
0
0
0
0
0
0
0
0
0
0
0
0
0
0
0
0
0
0
0
0
0
0
0
0
0
0
0
0
0
0
0
0
0
0
7.49494e-08
7.42297e-08
7.53754e-08
8.37115e-08
1.2195e-07
1.9405e-07
2.42034e-07
2.75302e-07
2.97572e-07
3.17473e-07
3.52406e-07
3.55007e-07
2.87263e-07
1.73365e-07
7.47675e-08
2.29086e-08
5.221e-09
1.46613e-11
4.50011e-09
1.12331e-08
1.76264e-08
2.43632e-08
2.95931e-08
3.0471e-08
2.82005e-08
2.1065e-08
9.99396e-07
1.84621e-08
1.74449e-08
1.61225e-08
1.47263e-08
9.98584e-07
1.01664e-06
4.93499e-09
2.73164e-09
1.3123e-09
5.4152e-10
1.09998e-10
4.75695e-10
1.95229e-09
5.36617e-09
1.44694e-08
5.11604e-08
1.5338e-07
3.27947e-07
3.20895e-07
8.81713e-08
1.91935e-08
5.43757e-09
1.27508e-09
6.75376e-10
4.76841e-10
0
0
0
0
0
0
0
0
0
0
0
0
0
0
0
0
0
0
0
0
0
0
0
0
0
0
0
0
0
0
0
0
0
0
0
0
0
0
0
0
0
0
0
0
0
0
0
0
7.43835e-08
7.2417e-08
7.00325e-08
6.65646e-08
6.88294e-08
8.34136e-08
1.02584e-07
1.30566e-07
1.871e-07
2.74612e-07
3.69892e-07
4.14103e-07
3.65264e-07
2.4124e-07
1.1513e-07
3.91248e-08
1.0141e-08
1.94978e-09
3.22151e-10
3.20334e-09
5.93704e-07
1.17224e-08
1.67813e-08
1.90125e-08
1.74042e-08
1.36998e-08
1.23831e-08
1.29175e-08
1.33058e-08
1.3031e-08
1.17094e-08
1.1004e-06
6.09684e-09
3.72981e-09
1.77963e-09
5.44218e-10
1.94137e-07
5.49631e-10
2.29968e-10
1.61673e-09
5.17834e-09
4.32219e-07
6.31659e-08
1.76329e-07
3.61008e-07
2.68191e-07
6.59649e-08
1.52504e-08
3.33235e-09
9.93969e-10
6.62879e-10
1.84536e-10
0
0
0
0
0
0
0
0
0
0
0
0
0
0
0
0
0
0
0
0
0
0
0
0
0
0
0
0
0
0
0
0
0
0
0
0
0
0
0
0
0
0
0
0
0
0
0
0
7.33806e-08
6.97169e-08
6.4184e-08
5.88355e-08
5.04762e-08
4.25196e-08
4.04737e-08
6.24638e-08
1.2724e-07
2.30196e-07
3.42774e-07
4.15438e-07
4.00492e-07
2.94602e-07
1.5888e-07
6.10609e-08
1.74037e-08
4.2295e-09
1.08114e-10
8.76025e-10
3.09265e-09
6.10527e-09
8.29726e-09
1.07631e-08
1.09698e-08
9.28187e-07
9.68798e-07
9.46995e-09
1.03449e-08
1.04094e-08
9.28943e-09
7.18636e-09
4.47102e-09
2.27535e-09
8.29803e-10
1.34966e-10
1.93283e-10
4.73894e-10
9.02838e-10
1.39501e-09
5.34864e-09
1.73982e-08
9.37222e-08
2.02129e-06
3.77889e-07
2.20867e-07
4.90234e-08
1.15689e-08
2.20019e-09
8.27443e-10
4.12521e-10
0
0
0
0
0
0
0
0
0
0
0
0
0
0
0
0
0
0
0
0
0
0
0
0
0
0
0
0
0
0
0
0
0
0
0
0
0
0
0
0
0
0
0
0
0
0
0
0
0
7.15091e-08
6.35459e-08
5.83294e-08
4.99139e-08
3.66355e-08
2.12656e-08
1.68615e-08
3.64027e-08
9.22166e-08
1.82805e-07
2.92278e-07
3.80336e-07
3.99494e-07
3.29267e-07
2.04125e-07
9.09581e-08
2.91023e-08
7.45093e-09
1.33555e-09
6.42064e-11
1.40113e-09
3.19209e-09
6.42142e-07
6.31607e-09
7.08534e-09
7.57054e-09
7.76231e-09
7.32401e-09
8.08599e-09
8.02404e-09
6.95518e-09
5.23255e-09
2.94955e-09
7.05227e-07
4.33718e-07
1.55428e-11
2.41591e-10
4.82731e-10
8.17828e-10
1.31268e-09
5.84587e-09
2.41762e-08
1.15772e-07
2.31741e-07
3.7828e-07
1.80806e-07
3.77501e-08
8.48978e-09
1.66697e-09
7.00828e-10
3.24285e-10
0
0
0
0
0
0
0
0
0
0
0
0
0
0
0
0
0
0
0
0
0
0
0
0
0
0
0
0
0
0
0
0
0
0
0
0
0
0
0
0
0
0
0
0
0
0
0
0
0
6.68655e-08
5.60582e-08
4.46753e-08
3.48065e-08
2.04941e-08
8.58951e-09
8.67832e-09
2.64313e-08
7.05133e-08
1.45572e-07
2.44247e-07
3.34226e-07
3.75829e-07
3.44915e-07
2.46931e-07
1.29528e-07
4.81043e-08
1.36591e-08
3.33358e-09
1.11564e-10
4.89972e-10
1.64049e-09
2.31447e-09
3.80405e-09
7.45149e-07
6.08685e-09
6.61094e-09
1.07913e-06
6.23702e-09
5.85105e-09
4.70864e-09
3.33301e-09
1.70317e-09
6.24181e-10
1.93128e-11
4.43871e-11
3.46788e-10
5.13394e-10
7.93191e-10
2.338e-09
8.44635e-09
2.98051e-08
1.35914e-07
2.04016e-06
3.61445e-07
1.42139e-07
3.01118e-08
6.06572e-09
1.32051e-09
5.4055e-10
0
0
0
0
0
0
0
0
0
0
0
0
0
0
0
0
0
0
0
0
0
0
0
0
0
0
0
0
0
0
0
0
0
0
0
0
0
0
0
0
0
0
0
0
0
0
0
0
0
0
5.94591e-08
3.86463e-08
2.486e-08
1.55703e-08
7.27695e-09
3.29917e-09
7.6032e-09
2.35427e-08
5.88975e-08
1.21769e-07
2.07036e-07
2.90155e-07
3.4228e-07
3.43732e-07
2.80995e-07
1.73545e-07
7.6444e-08
2.51019e-08
6.67116e-09
1.24368e-09
6.70473e-07
8.13248e-10
1.87895e-09
3.0087e-09
8.63642e-07
4.86936e-09
5.25984e-09
4.72388e-09
4.67508e-09
3.95572e-09
2.79038e-09
1.82199e-09
8.23623e-10
2.34537e-10
1.16605e-11
1.58788e-10
4.45494e-10
5.35526e-10
7.86597e-10
2.80037e-09
8.00685e-07
4.50398e-08
1.56957e-07
3.15021e-07
3.26246e-07
1.05573e-07
2.34961e-08
4.21001e-09
1.03469e-09
4.51373e-10
0
0
0
0
0
0
0
0
0
0
0
0
0
0
0
0
0
0
0
0
0
0
0
0
0
0
0
0
0
0
0
0
0
0
0
0
0
0
0
0
0
0
0
0
0
0
0
0
0
0
4.37495e-08
1.4366e-08
6.17957e-09
3.33302e-09
2.28933e-09
4.07631e-09
1.01605e-08
2.37436e-08
5.26017e-08
1.0496e-07
1.78333e-07
2.51669e-07
3.05402e-07
3.28688e-07
3.01081e-07
2.16215e-07
1.13347e-07
4.38212e-08
1.36054e-08
3.74997e-09
2.61441e-10
9.55715e-11
1.19106e-09
2.4804e-09
3.49682e-09
3.84166e-09
1.41262e-06
3.63216e-09
3.29226e-09
2.4272e-09
1.44429e-09
8.25336e-10
2.66394e-10
9.84796e-11
1.04786e-10
2.80228e-10
5.10881e-10
5.15703e-10
8.72598e-10
3.73273e-09
1.39966e-08
6.15251e-08
1.82633e-07
3.48655e-07
2.80183e-07
7.71835e-08
1.7583e-08
2.84724e-09
8.33345e-10
2.48891e-10
0
0
0
0
0
0
0
0
0
0
0
0
0
0
0
0
0
0
0
0
0
0
0
0
0
0
0
0
0
0
0
0
0
0
0
0
0
0
0
0
0
0
0
0
0
0
0
0
0
0
2.30077e-10
4.08961e-09
5.58942e-09
6.63727e-09
7.81553e-09
9.83987e-09
1.41671e-08
2.43884e-08
4.87501e-08
9.49601e-08
1.55729e-07
2.18006e-07
2.69778e-07
3.0546e-07
3.05536e-07
2.49498e-07
1.53861e-07
7.02368e-08
2.57591e-08
8.38946e-09
2.43878e-09
7.56032e-11
3.89318e-10
1.77507e-09
2.76976e-09
1.26681e-06
1.17052e-06
2.5708e-09
2.04906e-09
1.34795e-09
9.16908e-07
2.67369e-10
2.39979e-11
7.07954e-11
1.76521e-10
3.33868e-10
5.37036e-10
4.51157e-10
1.19975e-09
5.88109e-09
2.29921e-08
8.26766e-08
2.16044e-07
1.31916e-06
2.3299e-07
5.5679e-08
1.33796e-08
2.15533e-09
6.26246e-10
1.59992e-11
1.19522e-14
0
0
0
0
0
0
0
0
0
0
0
0
0
0
0
0
0
0
0
0
0
0
0
0
0
0
0
0
0
0
0
0
0
0
0
0
0
0
0
0
0
0
0
0
0
0
0
0
0
2.67865e-08
3.3165e-08
3.21293e-08
2.76011e-08
2.15049e-08
1.70658e-08
1.70459e-08
2.44204e-08
4.48371e-08
8.09658e-08
1.25655e-07
1.76696e-07
2.26954e-07
2.70198e-07
2.93775e-07
2.7619e-07
2.10779e-07
1.25578e-07
6.07062e-08
2.60569e-08
1.0506e-08
3.3153e-09
2.95803e-10
3.16651e-10
1.39871e-09
1.6359e-09
1.4706e-09
1.108e-09
7.3432e-10
4.16471e-10
1.36421e-10
1.2317e-12
2.14881e-11
7.83599e-11
2.0263e-10
3.89033e-10
5.87968e-10
3.37167e-10
2.25405e-09
1.0635e-08
3.99455e-08
1.16675e-07
2.04362e-06
3.64473e-07
1.44612e-07
2.93848e-08
5.63627e-09
1.1878e-09
9.16527e-15
0
0
0
0
0
0
0
0
0
0
0
0
0
0
0
0
0
0
0
0
0
0
0
0
0
0
0
0
0
0
0
0
0
0
0
0
0
0
0
0
0
0
0
0
0
0
0
0
0
0
0
3.16389e-09
7.53176e-09
1.1318e-08
1.28883e-08
1.2391e-08
1.17641e-08
1.34883e-08
2.07151e-08
3.74331e-08
6.4494e-08
9.6542e-08
1.29632e-07
1.71682e-07
2.15466e-07
2.48374e-07
2.57624e-07
2.3049e-07
1.72454e-07
1.07382e-07
5.80325e-08
2.87418e-08
1.29365e-08
4.49783e-09
1.16838e-09
4.40295e-10
2.67455e-10
2.20215e-10
8.14206e-11
5.17214e-11
5.68875e-11
7.585e-11
2.3967e-11
9.49634e-13
3.14288e-11
1.56858e-10
3.85187e-10
4.83374e-10
5.80456e-10
5.84892e-09
2.31745e-08
6.66339e-08
1.93303e-06
1.36863e-06
2.71583e-07
7.09067e-08
1.45513e-08
2.56281e-09
1.86474e-10
0
0
0
0
0
0
0
0
0
0
0
0
0
0
0
0
0
0
0
0
0
0
0
0
0
0
0
0
0
0
0
0
0
0
0
0
0
0
0
0
0
0
0
0
0
0
0
0
0
0
0
0
4.32856e-10
1.66907e-09
3.16692e-09
4.49142e-09
5.5586e-09
6.93004e-09
9.93684e-09
1.69453e-08
3.05032e-08
5.08211e-08
7.47451e-08
1.00281e-07
1.28985e-07
1.68537e-07
2.02655e-07
2.2061e-07
2.14011e-07
1.81496e-07
1.34019e-07
8.70925e-08
5.1254e-08
2.78622e-08
1.36866e-08
6.04384e-09
2.35224e-09
6.88681e-10
1.36298e-10
1.2733e-10
1.09045e-10
2.43102e-11
1.10473e-11
3.14526e-11
7.99531e-12
1.7852e-11
1.34024e-10
3.64948e-10
1.34746e-10
2.12382e-09
1.32727e-08
4.24679e-08
1.03654e-07
2.65579e-07
3.43649e-07
1.58185e-07
3.30656e-08
6.68246e-09
1.42109e-09
0
0
0
0
0
0
0
0
0
0
0
0
0
0
0
0
0
0
0
0
0
0
0
0
0
0
0
0
0
0
0
0
0
0
0
0
0
0
0
0
0
0
0
0
0
0
0
0
0
0
0
0
0
8.84123e-11
3.92941e-10
9.33546e-10
1.68829e-09
2.80912e-09
4.67609e-09
8.10556e-09
1.46921e-08
2.56237e-08
4.07754e-08
5.89142e-08
7.93957e-08
1.03141e-07
1.32149e-07
1.67339e-07
1.89211e-07
1.92218e-07
1.75123e-07
1.43178e-07
1.05738e-07
7.11418e-08
4.46284e-08
2.61109e-08
1.3882e-08
6.49599e-09
2.55825e-09
1.10899e-09
7.40769e-10
3.46356e-10
1.26588e-10
4.70136e-11
1.5079e-11
1.15409e-11
1.573e-11
1.34627e-10
2.87065e-10
2.54347e-10
5.80271e-09
2.64296e-08
7.41297e-08
1.7739e-07
3.2909e-07
2.54447e-07
7.52591e-08
1.64061e-08
3.18148e-09
7.21961e-10
0
0
0
0
0
0
0
0
0
0
0
0
0
0
0
0
0
0
0
0
0
0
0
0
0
0
0
0
0
0
0
0
0
0
0
0
0
0
0
0
0
0
0
0
0
0
0
0
0
0
0
0
0
0
1.11729e-10
3.18833e-10
8.51996e-10
1.98073e-09
3.9706e-09
7.57954e-09
1.35075e-08
2.2368e-08
3.35712e-08
4.73686e-08
6.41419e-08
8.40932e-08
1.10429e-07
1.41438e-07
1.67444e-07
1.77482e-07
1.6988e-07
1.49391e-07
1.21347e-07
9.05221e-08
6.21094e-08
3.89776e-08
2.18119e-08
1.05414e-08
4.44243e-09
2.09771e-09
9.00836e-10
3.75588e-10
1.30703e-10
3.71099e-11
1.49272e-11
8.62427e-12
1.91165e-11
1.36901e-10
5.86162e-12
2.18935e-09
1.41652e-08
5.13704e-08
1.42272e-07
2.97675e-07
3.22491e-07
1.461e-07
3.12895e-08
6.2836e-09
1.5518e-09
2.20261e-14
0
0
0
0
0
0
0
0
0
0
0
0
0
0
0
0
0
0
0
0
0
0
0
0
0
0
0
0
0
0
0
0
0
0
0
0
0
0
0
0
0
0
0
0
0
0
0
0
0
0
0
0
0
0
6.29083e-15
1.90719e-10
6.01486e-10
1.6274e-09
3.66651e-09
6.91505e-09
1.17956e-08
1.87681e-08
2.72381e-08
3.81631e-08
5.97477e-08
8.93633e-08
1.29029e-07
1.67591e-07
1.98967e-07
2.10882e-07
2.03118e-07
1.80305e-07
1.48394e-07
1.1266e-07
7.83636e-08
4.92123e-08
2.70335e-08
1.25381e-08
5.11057e-09
2.33249e-09
8.73023e-10
3.42451e-10
1.09749e-10
2.39065e-11
3.39126e-11
1.15086e-13
3.0676e-11
7.45176e-11
7.67522e-10
7.57642e-09
3.25414e-08
1.04653e-07
2.4575e-07
3.4526e-07
1.99891e-07
5.76309e-08
1.29666e-08
2.55761e-09
1.99823e-10
0
0
0
0
0
0
0
0
0
0
0
0
0
0
0
0
0
0
0
0
0
0
0
0
0
0
0
0
0
0
0
0
0
0
0
0
0
0
0
0
0
0
0
0
0
0
0
0
0
0
0
0
0
0
0
2.87678e-13
8.16336e-11
3.43606e-10
9.68297e-10
2.09872e-09
3.99209e-09
7.0775e-09
1.21185e-08
2.02056e-08
4.10058e-08
7.02418e-08
1.06987e-07
1.58124e-07
2.10311e-07
2.47935e-07
2.62534e-07
2.51749e-07
2.21176e-07
1.79439e-07
1.33937e-07
9.09835e-08
5.50992e-08
2.86284e-08
1.21706e-08
4.52457e-09
1.98284e-09
7.23819e-10
2.83313e-10
8.00802e-11
1.06039e-11
4.63807e-11
5.05759e-11
2.70543e-10
8.7236e-10
4.38402e-09
2.19946e-08
7.0532e-08
1.83078e-07
2.67486e-07
2.15543e-07
8.70486e-08
2.10285e-08
4.39363e-09
1.28102e-09
0
0
0
0
0
0
0
0
0
0
0
0
0
0
0
0
0
0
0
0
0
0
0
0
0
0
0
0
0
0
0
0
0
0
0
0
0
0
0
0
0
0
0
0
0
0
0
0
0
0
0
0
0
0
0
0
0
1.38373e-11
1.48419e-11
3.38134e-11
7.69563e-11
2.31807e-10
8.84998e-10
3.57715e-09
1.46937e-08
3.97623e-08
7.25647e-08
1.14207e-07
1.74706e-07
2.48005e-07
2.98187e-07
3.17635e-07
3.02863e-07
2.62057e-07
2.07668e-07
1.50599e-07
9.8672e-08
5.68762e-08
2.74925e-08
1.04263e-08
3.32859e-09
1.41778e-09
5.59832e-10
2.12224e-10
4.55697e-12
1.74304e-10
5.32115e-10
1.62566e-09
3.28988e-09
5.27751e-09
1.45051e-08
5.58084e-08
1.30307e-07
2.41071e-07
1.85532e-07
9.57868e-08
2.80915e-08
7.28889e-09
2.00914e-09
6.05014e-10
0
0
0
0
0
0
0
0
0
0
0
0
0
0
0
0
0
0
0
0
0
0
0
0
0
0
0
0
0
0
0
0
0
0
0
0
0
0
0
0
0
0
0
0
0
0
0
0
0
0
0
0
0
0
0
0
0
0
8.7373e-15
2.76032e-13
4.4432e-13
1.67056e-12
2.22591e-12
3.19299e-10
7.10725e-09
2.95621e-08
6.11291e-08
1.03467e-07
1.69486e-07
2.61104e-07
3.30336e-07
3.61361e-07
3.46681e-07
2.9735e-07
2.30818e-07
1.62855e-07
1.03058e-07
5.68595e-08
2.57873e-08
8.70512e-09
2.15988e-09
6.90653e-10
2.36977e-10
3.04128e-12
2.3509e-10
1.25717e-09
4.07759e-09
1.00225e-08
1.61677e-08
1.91167e-08
3.90049e-08
1.04478e-07
1.67337e-07
1.98679e-07
9.25353e-08
3.01045e-08
9.5089e-09
2.49379e-09
1.00247e-09
0
0
0
0
0
0
0
0
0
0
0
0
0
0
0
0
0
0
0
0
0
0
0
0
0
0
0
0
0
0
0
0
0
0
0
0
0
0
0
0
0
0
0
0
0
0
0
0
0
0
0
0
0
0
0
0
0
0
0
4.86759e-13
7.59736e-14
1.11024e-13
4.23661e-12
5.02366e-11
3.75647e-10
3.05845e-09
1.7854e-08
4.47147e-08
8.42765e-08
1.51263e-07
2.5268e-07
3.40074e-07
3.86547e-07
3.77863e-07
3.24357e-07
2.49022e-07
1.72488e-07
1.06886e-07
5.77175e-08
2.55199e-08
8.2064e-09
1.57232e-09
1.63206e-10
7.1505e-15
3.53297e-10
2.2992e-09
7.54718e-09
1.98976e-08
3.91588e-08
5.60921e-08
5.26247e-08
8.92487e-08
1.49671e-07
1.4676e-07
1.09713e-07
3.43318e-08
1.04484e-08
2.96417e-09
1.13107e-09
8.5413e-15
0
0
0
0
0
0
0
0
0
0
0
0
0
0
0
0
0
0
0
0
0
0
0
0
0
0
0
0
0
0
0
0
0
0
0
0
0
0
0
0
0
0
0
0
0
0
0
0
0
0
0
0
0
0
0
0
0
0
0
0
6.8508e-13
4.10647e-13
1.87107e-12
5.06219e-11
3.83772e-10
1.65735e-09
8.95433e-09
2.95985e-08
6.32692e-08
1.25702e-07
2.27354e-07
3.27644e-07
3.9045e-07
3.93194e-07
3.42128e-07
2.63516e-07
1.82147e-07
1.13286e-07
6.21496e-08
2.87362e-08
1.03173e-08
2.68014e-09
7.41524e-10
1.23235e-09
4.24938e-09
1.2201e-08
3.04015e-08
6.60538e-08
1.00985e-07
1.43554e-07
1.083e-07
1.44575e-07
1.50515e-07
9.17147e-08
4.24598e-08
1.26998e-08
3.30268e-09
1.32336e-09
3.40976e-14
0
0
0
0
0
0
0
0
0
0
0
0
0
0
0
0
0
0
0
0
0
0
0
0
0
0
0
0
0
0
0
0
0
0
0
0
0
0
0
0
0
0
0
0
0
0
0
0
0
0
0
0
0
0
0
0
0
0
0
0
0
0
2.79299e-12
2.56978e-12
1.8236e-11
2.57506e-10
1.2054e-09
3.7782e-09
1.74336e-08
4.56106e-08
9.80661e-08
1.90628e-07
2.96577e-07
3.73369e-07
3.91564e-07
3.50953e-07
2.75602e-07
1.94472e-07
1.24997e-07
7.28059e-08
3.7783e-08
1.71955e-08
7.95059e-09
5.87912e-09
8.63444e-09
1.81826e-08
3.99591e-08
8.01897e-08
1.53711e-07
1.67265e-07
1.74663e-07
1.4872e-07
1.4379e-07
9.91928e-08
3.8887e-08
1.44936e-08
4.0475e-09
1.65908e-09
1.91028e-10
0
0
0
0
0
0
0
0
0
0
0
0
0
0
0
0
0
0
0
0
0
0
0
0
0
0
0
0
0
0
0
0
0
0
0
0
0
0
0
0
0
0
0
0
0
0
0
0
0
0
0
0
0
0
0
0
0
0
0
0
0
0
0
0
0
1.01293e-11
1.03344e-10
6.6865e-10
2.0409e-09
8.29186e-09
2.94071e-08
6.88539e-08
1.45732e-07
2.49519e-07
3.36055e-07
3.72743e-07
3.4934e-07
2.85422e-07
2.10282e-07
1.43661e-07
9.24573e-08
5.67839e-08
3.23109e-08
2.12288e-08
2.13562e-08