/*--------------------------------*- C++ -*----------------------------------*\
  =========                 |
  \\      /  F ield         | OpenFOAM: The Open Source CFD Toolbox
   \\    /   O peration     | Website:  https://openfoam.org
    \\  /    A nd           | Version:  6
     \\/     M anipulation  |
\*---------------------------------------------------------------------------*/
FoamFile
{
    version     2.0;
    format      ascii;
    class       volScalarField;
    location    "0.005";
    object      CH2CO;
}
// * * * * * * * * * * * * * * * * * * * * * * * * * * * * * * * * * * * * * //

dimensions      [0 0 0 0 0 0 0];

internalField   nonuniform List<scalar> 
8000
(
2.47891e-17
7.76249e-13
5.12415e-12
5.4923e-11
8.55485e-10
1.34285e-08
1.24401e-07
4.56875e-07
7.87462e-07
1.05313e-06
1.29627e-06
1.52375e-06
1.74716e-06
1.90754e-06
1.92446e-06
1.9149e-06
2.08521e-06
2.54004e-06
3.28957e-06
5.22867e-06
1.13674e-05
2.46593e-05
3.59139e-05
4.24048e-05
6.66859e-05
0.00013525
0.000185483
0.000173451
0.000133815
0.0001014
9.1427e-05
0.000105281
0.000132547
0.000165031
0.000184277
0.000203466
0.000218636
0.000249716
0.000264501
0.000285645
0.000308101
0.000303099
0.000254736
0.000207519
0.000160922
3.98703e-05
1.56605e-05
1.85571e-05
2.08208e-05
7.20467e-06
9.11857e-07
7.73936e-08
1.37781e-09
0
0
0
0
0
0
0
0
0
0
0
0
0
0
0
0
0
0
0
0
0
0
0
0
0
0
0
0
0
0
0
0
0
0
0
0
0
0
0
0
0
0
0
0
0
0
0
4.03842e-16
7.44191e-12
2.0641e-11
1.92357e-10
2.06715e-09
2.96653e-08
2.60257e-07
7.46638e-07
1.1782e-06
1.57714e-06
1.90843e-06
2.15067e-06
2.37493e-06
2.60876e-06
2.57889e-06
2.40593e-06
2.48079e-06
2.91328e-06
3.62591e-06
5.56455e-06
1.2024e-05
2.91044e-05
0.000248572
5.44544e-05
8.16458e-05
0.000179751
0.000235476
0.000197213
0.000142744
0.00010038
8.83666e-05
0.000103067
0.000132222
0.000166343
0.000186786
0.000214043
0.00022086
0.000263324
0.000265781
0.000307508
0.000328387
0.000304333
0.000255481
0.000208309
0.00016292
4.70086e-05
1.84156e-05
1.8893e-05
3.68133e-05
1.6951e-05
2.92468e-06
1.28241e-07
4.57735e-10
0
0
0
0
0
0
0
0
0
0
0
0
0
0
0
0
0
0
0
0
0
0
0
0
0
0
0
0
0
0
0
0
0
0
0
0
0
0
0
0
0
0
0
0
0
0
0
3.04198e-12
1.44364e-07
3.14306e-12
3.44703e-07
9.91361e-09
9.97374e-08
5.4576e-07
1.2117e-06
2.70342e-06
2.72702e-06
3.18961e-06
3.44448e-06
3.58915e-06
4.04753e-06
7.42736e-06
5.73008e-06
3.23118e-06
3.85412e-06
4.67308e-06
6.37572e-06
1.11947e-05
2.25557e-05
3.75662e-05
4.08675e-05
5.69748e-05
0.000148524
0.000846448
0.000210873
0.000126167
8.55032e-05
7.9296e-05
9.92196e-05
0.00013265
0.000169632
0.000192589
0.000212702
0.000234514
0.000267287
0.000283894
0.000310628
0.000331763
0.000326254
0.000272078
0.000218155
0.000160563
5.71402e-05
0.000134267
1.70899e-05
2.08479e-05
9.49677e-06
1.24155e-06
7.33606e-08
2.14461e-15
0
0
0
0
0
0
0
0
0
0
0
0
0
0
0
0
0
0
0
0
0
0
0
0
0
0
0
0
0
0
0
0
0
0
0
0
0
0
0
0
0
0
0
0
0
0
0
4.1643e-16
1.23636e-10
4.01197e-09
3.62896e-08
1.49656e-07
3.44187e-07
8.15496e-07
1.57625e-06
2.75425e-06
7.2193e-06
6.8006e-06
7.20974e-06
7.04e-06
8.88924e-06
3.75375e-06
3.52544e-06
4.048e-06
6.47125e-06
1.20523e-05
8.69986e-06
1.23957e-05
2.54612e-05
3.17253e-05
3.61888e-05
4.28961e-05
6.82679e-05
0.000107563
0.000112175
9.06514e-05
0.000220549
7.53396e-05
9.98815e-05
0.00013618
0.000175153
0.000201902
0.000222678
0.000251539
0.000265664
0.000287565
0.000334365
0.000336065
0.000330534
0.00027503
0.000220445
0.00016378
5.34943e-05
1.59468e-05
1.03893e-05
9.56121e-06
3.5767e-06
3.78351e-07
3.0536e-08
9.11268e-19
0
0
0
0
0
0
0
0
0
0
0
0
0
0
0
0
0
0
0
0
0
0
0
0
0
0
0
0
0
0
0
0
0
0
0
0
0
0
0
0
0
0
0
0
0
0
0
5.91165e-14
1.49798e-10
6.50322e-07
2.81423e-07
1.43053e-06
7.93066e-07
1.07292e-06
1.68499e-06
3.09404e-06
9.39798e-06
4.73438e-05
3.65178e-05
2.17854e-05
6.04869e-06
4.26496e-06
7.65569e-06
5.80964e-06
1.47241e-05
1.18138e-05
1.29374e-05
2.06093e-05
2.6577e-05
2.93378e-05
7.51588e-05
9.93095e-05
4.90811e-05
7.29313e-05
0.000211397
0.000137954
8.32797e-05
7.75807e-05
0.000106101
0.000142857
0.000175521
0.000219978
0.000931961
0.000265214
0.000285361
0.000331398
0.000339991
0.000340757
0.000335063
0.000298753
0.000232711
0.000167401
5.32645e-05
1.33252e-05
7.20348e-06
4.459e-06
1.37149e-06
1.63483e-07
4.39707e-09
0
0
0
0
0
0
0
0
0
0
0
0
0
0
0
0
0
0
0
0
0
0
0
0
0
0
0
0
0
0
0
0
0
0
0
0
0
0
0
0
0
0
0
0
0
0
0
0
2.16172e-12
2.66938e-11
1.23873e-07
1.02543e-06
1.37643e-06
1.3747e-06
1.30835e-06
1.72692e-06
2.58154e-06
4.05339e-06
6.93199e-06
7.13076e-06
5.60366e-06
4.34102e-06
4.24437e-06
5.50668e-06
9.34326e-06
2.12602e-05
2.11957e-05
3.04913e-05
2.19548e-05
3.26849e-05
3.07799e-05
8.0694e-05
0.000108328
5.03782e-05
5.60256e-05
0.000257457
0.000163973
5.89326e-05
7.04927e-05
0.00011569
0.000428662
0.000182699
0.000216579
0.000254629
0.00026921
0.000310155
0.000335935
0.00034581
0.000345281
0.000339171
0.00102187
0.000235697
0.000171681
6.06238e-05
1.47689e-05
7.04428e-06
3.13603e-06
9.65823e-07
2.22845e-07
4.76902e-08
0
0
0
0
0
0
0
0
0
0
0
0
0
0
0
0
0
0
0
0
0
0
0
0
0
0
0
0
0
0
0
0
0
0
0
0
0
0
0
0
0
0
0
0
0
0
0
0
1.50921e-12
3.75957e-10
3.27099e-08
2.686e-07
6.79745e-07
9.67971e-07
1.4631e-06
2.0142e-06
2.60324e-06
3.12078e-06
5.24266e-06
6.73037e-06
6.23478e-06
4.23484e-06
5.24533e-06
8.08216e-06
1.25153e-05
2.12777e-05
6.5288e-05
3.08641e-05
5.10203e-05
2.94619e-05
5.88036e-05
4.42523e-05
0.000102636
6.47113e-05
5.22751e-05
4.86113e-05
4.27361e-05
5.0321e-05
7.84661e-05
0.000122335
0.000161978
0.000191768
0.000222058
0.000270004
0.000288022
0.000332233
0.000338618
0.00103733
0.000348975
0.000342639
0.000322912
0.000237189
0.000176879
7.52388e-05
1.86983e-05
1.03243e-05
4.85616e-06
1.51964e-06
4.77159e-07
8.75246e-08
0
0
0
0
0
0
0
0
0
0
0
0
0
0
0
0
0
0
0
0
0
0
0
0
0
0
0
0
0
0
0
0
0
0
0
0
0
0
0
0
0
0
0
0
0
0
0
0
1.71549e-07
2.69576e-07
3.73904e-08
3.5006e-07
7.19236e-07
1.25143e-06
1.96942e-06
3.14966e-06
7.1915e-06
3.84419e-06
3.72147e-06
3.7662e-06
4.15847e-06
6.08417e-06
1.22552e-05
1.68696e-05
2.84947e-05
5.45974e-05
5.39919e-05
8.84242e-05
3.91229e-05
3.83195e-05
7.26818e-05
4.78893e-05
5.80333e-05
0.000119421
4.54219e-05
3.90152e-05
4.08563e-05
6.6999e-05
0.000112492
0.000145586
0.000174698
0.000203359
0.000238588
0.000270515
0.000313184
0.000335099
0.000339113
0.000349431
0.000351193
0.000346134
0.00032308
0.000249213
0.000183089
9.40788e-05
2.39822e-05
1.22775e-05
7.03948e-06
5.95066e-08
6.17204e-08
5.59854e-08
0
0
0
0
0
0
0
0
0
0
0
0
0
0
0
0
0
0
0
0
0
0
0
0
0
0
0
0
0
0
0
0
0
0
0
0
0
0
0
0
0
0
0
0
0
0
0
0
1.75533e-07
3.90897e-07
1.66656e-07
9.58599e-07
1.01896e-06
1.76635e-06
2.46529e-06
4.93124e-06
1.67651e-05
6.34585e-06
8.73775e-06
7.9666e-06
5.98664e-06
8.2906e-06
1.10799e-05
2.04508e-05
3.29222e-05
7.17643e-05
7.74209e-05
6.03939e-05
4.97672e-05
8.30225e-05
4.78247e-05
0.000101844
0.00011346
5.27704e-05
4.42676e-05
3.96442e-05
5.46175e-05
0.000106474
0.000324458
0.0003747
0.000194775
0.000219011
0.000268364
0.000290842
0.000336087
0.000336241
0.00033746
0.000346563
0.00104143
0.00104118
0.000323607
0.000249242
0.000697673
0.00017626
2.92345e-05
1.27423e-05
5.78037e-06
1.79242e-06
3.83515e-07
3.38292e-08
0
0
0
0
0
0
0
0
0
0
0
0
0
0
0
0
0
0
0
0
0
0
0
0
0
0
0
0
0
0
0
0
0
0
0
0
0
0
0
0
0
0
0
0
0
0
0
0
4.28726e-13
3.77223e-07
6.89849e-07
9.145e-07
1.60186e-06
2.28368e-06
3.26603e-06
4.74911e-06
7.2189e-06
1.10115e-05
8.14131e-06
9.76938e-06
1.38774e-05
1.90247e-05
3.42456e-05
2.74449e-05
2.3907e-05
4.52868e-05
8.69048e-05
7.27957e-05
6.33142e-05
7.05874e-05
6.15659e-05
6.30602e-05
6.04868e-05
5.26995e-05
4.6903e-05
4.57119e-05
6.32149e-05
0.000297218
0.000157626
0.000187428
0.000646085
0.000228697
0.000270967
0.00100479
0.000339681
0.000335745
0.000333847
0.000340934
0.0010379
0.000345634
0.000322739
0.000248215
0.000176323
8.6523e-05
0.000104291
1.09752e-05
5.18337e-06
1.66521e-06
5.29455e-07
3.41735e-08
0
0
0
0
0
0
0
0
0
0
0
0
0
0
0
0
0
0
0
0
0
0
0
0
0
0
0
0
0
0
0
0
0
0
0
0
0
0
0
0
0
0
0
0
0
0
0
0
2.31547e-07
3.24269e-07
1.06202e-06
1.7925e-06
2.65524e-06
4.55799e-06
7.42296e-06
1.07569e-05
1.1759e-05
1.33016e-05
1.53713e-05
1.99197e-05
1.94892e-05
2.59248e-05
2.25141e-05
2.35145e-05
2.80038e-05
9.8727e-05
0.000101029
7.55162e-05
7.50345e-05
9.47437e-05
7.48835e-05
8.98888e-05
9.33323e-05
5.96229e-05
5.8396e-05
6.23837e-05
9.03419e-05
0.000136058
0.000170872
0.000198506
0.000224573
0.000255537
0.000287253
0.00100424
0.000340358
0.00101399
0.000328583
0.000333381
0.000339822
0.00034233
0.000321816
0.000235468
0.00017194
7.98959e-05
2.22418e-05
9.37714e-06
4.06744e-06
6.7444e-08
2.98465e-07
3.47131e-08
0
0
0
0
0
0
0
0
0
0
0
0
0
0
0
0
0
0
0
0
0
0
0
0
0
0
0
0
0
0
0
0
0
0
0
0
0
0
0
0
0
0
0
0
0
0
0
0
2.7738e-08
1.67627e-06
2.89493e-06
5.19813e-06
6.67015e-06
1.00097e-05
1.34155e-05
1.69931e-05
2.56816e-05
2.58994e-05
2.64274e-05
2.74287e-05
3.14877e-05
5.31327e-05
3.04581e-05
3.11919e-05
3.53189e-05
0.000103522
0.00010417
9.30508e-05
7.9401e-05
8.03055e-05
9.00839e-05
0.0001088
8.15095e-05
6.9436e-05
7.7983e-05
0.000135187
0.000131525
0.000365533
0.000191812
0.00022227
0.000243392
0.000944505
0.000285327
0.000327557
0.0010105
0.000328042
0.000321727
0.000325047
0.000331336
0.00034012
0.00102068
0.000233166
0.000166552
0.000102453
6.67791e-05
1.23853e-05
2.94782e-06
1.29841e-06
4.22816e-08
4.63933e-08
6.02749e-10
0
0
0
0
0
0
0
0
0
0
0
0
0
0
0
0
0
0
0
0
0
0
0
0
0
0
0
0
0
0
0
0
0
0
0
0
0
0
0
0
0
0
0
0
0
0
0
1.24013e-06
6.06866e-06
1.17216e-05
1.55264e-05
2.36851e-05
3.08005e-05
2.60119e-05
5.99319e-05
7.91355e-05
9.73571e-05
7.1165e-05
6.63695e-05
4.0523e-05
6.58538e-05
3.75225e-05
3.94869e-05
9.68375e-05
5.80561e-05
7.8458e-05
8.79661e-05
9.90228e-05
9.25436e-05
0.000108635
0.000145999
9.46354e-05
8.71722e-05
9.70171e-05
0.000228768
0.000151118
0.000189427
0.000212563
0.000233624
0.000272387
0.000268338
0.000279872
0.000318012
0.000999047
0.000999542
0.000313846
0.000316599
0.000323339
0.00102973
0.00101674
0.000229984
0.000159376
9.19992e-05
1.77534e-05
1.11358e-05
2.08047e-06
8.00374e-07
1.30115e-07
4.91155e-08
2.65871e-08
2.80684e-09
0
0
0
0
0
0
0
0
0
0
0
0
0
0
0
0
0
0
0
0
0
0
0
0
0
0
0
0
0
0
0
0
0
0
0
0
0
0
0
0
0
0
0
0
0
0
5.46627e-06
3.92459e-05
4.32211e-05
4.94688e-05
3.56224e-05
0.000106057
9.02898e-05
4.69691e-05
6.97693e-05
7.28035e-05
7.19741e-05
6.41538e-05
5.85181e-05
5.29665e-05
4.84853e-05
4.77922e-05
5.65579e-05
0.000104673
8.76369e-05
8.8401e-05
0.000262042
0.000118215
0.000118639
0.000125349
0.000171934
0.000120919
0.000250137
0.000147755
0.000182348
0.000219378
0.000237904
0.000262693
0.000952146
0.000278514
0.000272047
0.000288025
0.000308836
0.00098178
0.000304869
0.000308373
0.000315314
0.000329431
0.00029146
0.00021655
0.00015571
4.00305e-05
1.42436e-05
4.72375e-06
1.47938e-06
5.04636e-07
9.49411e-08
5.05167e-08
4.3958e-08
3.12454e-08
1.66002e-09
0
0
0
0
0
0
0
0
0
0
0
0
0
0
0
0
0
0
0
0
0
0
0
0
0
0
0
0
0
0
0
0
0
0
0
0
0
0
0
0
0
0
0
0
0
3.47606e-05
0.000330088
0.000315816
0.00013352
7.38937e-05
9.07571e-05
6.87585e-05
9.1435e-05
0.000115226
0.000142776
0.00027575
0.000143338
0.000147386
9.48028e-05
0.000104656
6.47404e-05
6.07836e-05
6.79959e-05
8.53239e-05
0.000119869
0.00025879
0.000161759
0.000123925
0.000134491
0.000145996
0.000442432
0.000159202
0.000173565
0.000203881
0.000870847
0.000892181
0.000938411
0.000956754
0.000949477
0.0009425
0.000943196
0.000251999
0.000249294
0.00097051
0.000276005
0.000999254
0.000323467
0.000998687
0.000862374
0.00014324
0.000105298
1.11581e-05
3.89004e-06
1.25046e-06
4.45253e-07
8.65143e-08
5.01621e-08
4.68623e-08
4.37153e-08
2.54664e-08
0
0
0
0
0
0
0
0
0
0
0
0
0
0
0
0
0
0
0
0
0
0
0
0
0
0
0
0
0
0
0
0
0
0
0
0
0
0
0
0
0
0
0
0
0
2.89121e-05
0.00010381
0.000148682
0.000665907
0.000193923
0.000158298
8.67293e-05
0.000109483
0.00020997
0.000243303
0.000403625
0.000648944
0.00021833
0.000152954
0.000103949
7.19478e-05
6.20083e-05
6.55134e-05
8.80896e-05
0.00012543
0.000114956
0.000114435
0.000132419
0.000160467
0.00046386
0.00018444
0.000189241
0.000199548
0.000216354
0.000238466
0.000882949
0.000263736
0.000254678
0.000242578
0.000234509
0.000908221
0.000902026
0.000221252
0.000939322
0.000964359
0.000252267
0.00100855
0.000978488
0.000196956
0.000128905
2.33315e-05
8.83798e-06
3.17983e-06
1.06794e-06
4.49591e-07
7.79387e-08
4.13512e-08
3.7952e-08
4.44588e-08
6.00744e-08
0
0
0
0
0
0
0
0
0
0
0
0
0
0
0
0
0
0
0
0
0
0
0
0
0
0
0
0
0
0
0
0
0
0
0
0
0
0
0
0
0
0
0
0
0
3.68398e-06
6.35443e-05
0.000100433
0.000189067
0.00024681
0.000170499
0.000106141
0.000114263
0.000185147
0.000804831
0.000389618
0.00100814
0.000784663
0.000210054
0.000137945
9.44744e-05
7.46307e-05
7.19381e-05
9.97466e-05
0.000103312
0.000101801
0.000111701
0.000134944
0.000416748
0.000350169
0.00019397
0.00047078
0.000603557
0.000672163
0.000745084
0.000218742
0.00023516
0.000228646
0.000229193
0.000845699
0.000827182
0.00082476
0.00020161
0.000219736
0.000940309
0.000962728
0.000254994
0.000947256
0.000193073
0.000250608
8.44312e-05
1.71062e-05
2.64531e-06
1.11448e-06
4.03246e-07
5.25526e-08
8.82487e-09
3.81881e-11
2.25102e-09
2.06546e-13
0
0
0
0
0
0
0
0
0
0
0
0
0
0
0
0
0
0
0
0
0
0
0
0
0
0
0
0
0
0
0
0
0
0
0
0
0
0
0
0
0
0
0
0
0
1.63879e-05
5.08541e-05
5.07901e-05
9.97489e-05
0.000182009
0.000326427
9.24374e-05
9.23691e-05
0.000155469
0.000206166
0.000279208
0.000965822
0.00092182
0.000706163
0.000145003
0.00010333
0.000124781
8.0843e-05
0.000135103
9.57419e-05
9.61854e-05
0.000215421
0.000122796
0.000144957
0.000168063
0.000174146
0.000174569
0.000174038
0.000177565
0.000187212
0.000200724
0.000840743
0.000835327
0.00019408
0.000772275
0.000169723
0.000168299
0.000174988
0.000190964
0.000218636
0.000941448
0.00095634
0.000218573
0.000172064
0.00016635
6.03263e-05
5.86644e-06
2.41071e-06
1.11876e-06
1.15533e-07
7.09498e-09
0
0
0
0
0
0
0
0
0
0
0
0
0
0
0
0
0
0
0
0
0
0
0
0
0
0
0
0
0
0
0
0
0
0
0
0
0
0
0
0
0
0
0
0
0
0
0
0
0
1.88387e-05
3.8571e-05
4.47139e-05
3.9151e-05
7.07228e-05
6.61342e-05
4.45457e-05
4.85945e-05
8.58365e-05
0.000114621
0.000129338
0.000125667
0.000412324
0.00021847
7.98601e-05
7.24137e-05
7.27881e-05
8.21064e-05
9.39093e-05
9.40158e-05
9.6937e-05
0.000102355
0.000108891
0.000123151
0.000138678
0.000315866
0.000151057
0.000348929
0.000155184
0.000164287
0.000627535
0.000678454
0.000175916
0.000721712
0.000618178
0.000152961
0.000158432
0.000182853
0.000750805
0.00019195
0.000890779
0.000217531
0.000190242
0.000634627
0.000117717
1.19842e-05
4.97642e-06
1.96181e-06
5.53315e-07
7.7255e-08
4.01695e-25
0
0
0
0
0
0
0
0
0
0
0
0
0
0
0
0
0
0
0
0
0
0
0
0
0
0
0
0
0
0
0
0
0
0
0
0
0
0
0
0
0
0
0
0
0
0
0
0
0
1.79016e-05
2.6504e-05
4.77052e-05
5.2206e-05
3.67421e-05
2.75399e-05
2.32792e-05
2.63616e-05
3.91033e-05
4.85725e-05
5.09036e-05
4.7356e-05
3.85881e-05
3.11178e-05
3.22562e-05
3.80223e-05
5.96826e-05
7.9769e-05
8.84787e-05
0.000254902
9.32102e-05
0.000268815
9.44669e-05
0.00010196
0.000113699
0.000124616
0.000128377
0.000128896
0.000135748
0.000395284
0.000479277
0.000149742
0.000545088
0.000547538
0.000139038
0.000138918
0.000442972
0.000172061
0.00055418
0.000177751
0.000194788
0.000855498
0.000175412
0.000140377
9.81284e-05
9.17087e-06
4.24001e-06
1.53376e-06
3.56104e-07
6.9143e-08
3.9992e-10
0
0
0
0
0
0
0
0
0
0
0
0
0
0
0
0
0
0
0
0
0
0
0
0
0
0
0
0
0
0
0
0
0
0
0
0
0
0
0
0
0
0
0
0
0
0
0
0
0
1.74847e-05
1.98467e-05
2.8089e-05
4.24441e-05
5.24206e-05
4.46946e-05
3.90596e-05
3.53157e-05
3.25469e-05
3.00958e-05
2.5442e-05
2.13302e-05
1.70278e-05
1.38897e-05
1.34592e-05
1.77292e-05
3.18799e-05
0.000107112
6.91824e-05
9.01277e-05
0.000260981
8.35801e-05
8.7489e-05
9.27128e-05
9.80239e-05
0.000103714
0.000407677
0.000113182
0.000120293
0.000395123
0.000128439
0.000127303
0.000126295
0.000124851
0.000123468
0.000127938
0.000145426
0.000172374
0.000401158
0.000580307
0.000179715
0.000181523
0.000160183
0.000457199
9.61583e-05
7.30441e-06
3.55735e-06
1.28119e-06
4.50229e-07
8.30635e-08
3.60402e-08
1.75594e-25
0
0
0
0
0
0
0
0
0
0
0
0
0
0
0
0
0
0
0
0
0
0
0
0
0
0
0
0
0
0
0
0
0
0
0
0
0
0
0
0
0
0
0
0
0
0
0
0
1.7664e-05
1.8835e-05
2.01679e-05
2.50817e-05
3.73126e-05
4.75178e-05
4.90604e-05
4.72266e-05
4.18876e-05
3.42358e-05
2.7406e-05
2.12399e-05
1.55566e-05
1.13229e-05
9.09198e-06
9.72848e-06
1.53844e-05
2.66112e-05
4.47603e-05
0.000146491
0.000160294
7.00511e-05
8.07502e-05
0.000369772
0.000361165
9.48053e-05
9.7559e-05
9.94967e-05
0.000105824
0.00046833
0.000480621
0.000109675
0.000107788
0.000107182
0.000417913
0.0001179
0.00014813
0.000313318
0.000368271
0.000184199
0.000188895
0.000173652
0.000144374
0.00010186
1.97556e-05
6.17475e-06
2.89165e-06
1.14487e-06
4.48975e-07
1.32579e-07
5.52458e-08
4.26567e-08
0
0
0
0
0
0
0
0
0
0
0
0
0
0
0
0
0
0
0
0
0
0
0
0
0
0
0
0
0
0
0
0
0
0
0
0
0
0
0
0
0
0
0
0
0
0
0
0
1.82167e-05
1.94489e-05
1.97724e-05
1.98413e-05
2.28973e-05
2.93736e-05
3.20103e-05
3.18721e-05
2.85096e-05
2.42084e-05
2.00037e-05
1.62047e-05
1.28239e-05
9.40698e-06
7.00128e-06
6.50238e-06
8.55336e-06
1.45677e-05
2.68798e-05
4.08217e-05
5.20731e-05
6.17064e-05
7.36945e-05
8.43817e-05
8.69062e-05
8.94756e-05
0.000359579
8.85804e-05
8.99948e-05
9.14334e-05
9.14361e-05
0.000488814
0.000490753
9.45952e-05
0.000100112
0.000113349
0.000138703
0.000172453
0.000181624
0.00017689
0.000173153
0.000161505
0.000129153
7.98789e-05
1.40651e-05
5.14289e-06
2.34411e-06
1.13543e-06
3.76761e-07
7.8265e-08
5.8938e-08
5.69398e-08
0
0
0
0
0
0
0
0
0
0
0
0
0
0
0
0
0
0
0
0
0
0
0
0
0
0
0
0
0
0
0
0
0
0
0
0
0
0
0
0
0
0
0
0
0
0
0
0
1.90765e-05
2.06927e-05
2.08435e-05
1.94776e-05
1.78529e-05
1.67024e-05
1.53851e-05
1.34147e-05
1.33803e-05
1.18135e-05
1.1169e-05
1.04883e-05
9.33097e-06
7.5235e-06
5.49711e-06
4.57746e-06
5.55176e-06
8.95831e-06
1.66837e-05
2.94344e-05
0.000102927
5.88474e-05
7.07461e-05
7.77746e-05
8.14418e-05
8.37166e-05
8.20434e-05
7.79458e-05
7.68835e-05
7.66129e-05
7.73965e-05
0.000389958
8.16541e-05
8.3589e-05
9.15982e-05
0.000111983
0.000142166
0.000146035
0.000179363
0.000169852
0.000163039
0.000534347
0.000111268
5.70972e-05
1.06226e-05
4.31783e-06
1.93225e-06
8.34821e-07
1.83581e-07
6.88016e-08
5.36976e-08
1.10785e-08
0
0
0
0
0
0
0
0
0
0
0
0
0
0
0
0
0
0
0
0
0
0
0
0
0
0
0
0
0
0
0
0
0
0
0
0
0
0
0
0
0
0
0
0
0
0
0
0
2.02349e-05
2.18872e-05
2.12936e-05
1.90083e-05
1.48479e-05
1.01357e-05
7.25764e-06
5.929e-06
5.46719e-06
5.62811e-06
5.91243e-06
6.31347e-06
6.35786e-06
5.72572e-06
4.50486e-06
3.44626e-06
3.78477e-06
6.11838e-06
1.16234e-05
2.10336e-05
3.50337e-05
5.23172e-05
6.93647e-05
7.24863e-05
7.40365e-05
0.000265016
0.000270645
6.75141e-05
6.48602e-05
6.40478e-05
6.55033e-05
6.84338e-05
7.09414e-05
7.55657e-05
8.75242e-05
0.000110081
0.000124614
0.000137113
0.000149345
0.000162407
0.000151692
0.000135702
9.43757e-05
9.91774e-05
8.48089e-06
3.69196e-06
1.57307e-06
5.74742e-07
1.07611e-07
6.43679e-08
2.33491e-08
0
0
0
0
0
0
0
0
0
0
0
0
0
0
0
0
0
0
0
0
0
0
0
0
0
0
0
0
0
0
0
0
0
0
0
0
0
0
0
0
0
0
0
0
0
0
0
0
0
2.15157e-05
2.18311e-05
2.02186e-05
1.64948e-05
1.12921e-05
7.1352e-06
3.76802e-06
2.81829e-06
2.52994e-06
2.70829e-06
3.24472e-06
3.88005e-06
4.3352e-06
4.35897e-06
3.79784e-06
2.9641e-06
2.75198e-06
4.2229e-06
8.06702e-06
1.59997e-05
2.62468e-05
4.14609e-05
0.00013248
6.22268e-05
6.38389e-05
6.18812e-05
5.99584e-05
5.74904e-05
5.40397e-05
5.30819e-05
5.49643e-05
5.8019e-05
6.19758e-05
0.000123995
8.44965e-05
0.000102934
0.000111446
0.000126403
0.000142216
0.000153071
0.000139296
0.000122027
7.59343e-05
2.53537e-05
6.99059e-06
3.2335e-06
1.3759e-06
4.02928e-07
8.66249e-08
5.83278e-08
1.8629e-08
0
0
0
0
0
0
0
0
0
0
0
0
0
0
0
0
0
0
0
0
0
0
0
0
0
0
0
0
0
0
0
0
0
0
0
0
0
0
0
0
0
0
0
0
0
0
0
0
0
2.20237e-05
1.96062e-05
1.54516e-05
1.32865e-05
8.77287e-06
4.46293e-06
2.40582e-06
1.42533e-06
1.23295e-06
1.48509e-06
1.98745e-06
2.55901e-06
3.06441e-06
3.39989e-06
3.35111e-06
2.8315e-06
2.32511e-06
2.94668e-06
5.65977e-06
1.19918e-05
2.06329e-05
3.13182e-05
4.32877e-05
5.03049e-05
0.000129159
5.02847e-05
4.79926e-05
0.000143526
4.45112e-05
4.34017e-05
4.55062e-05
4.89697e-05
5.40675e-05
6.28232e-05
7.98636e-05
9.15488e-05
9.67226e-05
0.000115948
0.000134259
0.000134355
0.000126176
0.000107017
5.65345e-05
8.48384e-05
5.97055e-06
2.79417e-06
1.20808e-06
2.79671e-07
7.5862e-08
4.10854e-08
1.9293e-29
0
0
0
0
0
0
0
0
0
0
0
0
0
0
0
0
0
0
0
0
0
0
0
0
0
0
0
0
0
0
0
0
0
0
0
0
0
0
0
0
0
0
0
0
0
0
0
0
0
2.03433e-05
1.42405e-05
1.15275e-05
8.63757e-06
5.43447e-06
2.68891e-06
1.2932e-06
8.06353e-07
7.08844e-07
9.65551e-07
1.37725e-06
1.83632e-06
2.30283e-06
2.74925e-06
2.98987e-06
2.80542e-06
2.29678e-06
2.27001e-06
3.85519e-06
8.20788e-06
5.83021e-05
2.34193e-05
3.14305e-05
3.87174e-05
9.88219e-05
3.95059e-05
3.74339e-05
3.80322e-05
3.54997e-05
3.48074e-05
3.72116e-05
4.07253e-05
4.63557e-05
5.62296e-05
6.95402e-05
7.66346e-05
8.37186e-05
0.000106317
0.000125897
0.000122809
0.000500439
9.12991e-05
3.91279e-05
1.35151e-05
5.05968e-06
2.32302e-06
1.01782e-06
1.91335e-07
6.35881e-08
3.81824e-08
0
0
0
0
0
0
0
0
0
0
0
0
0
0
0
0
0
0
0
0
0
0
0
0
0
0
0
0
0
0
0
0
0
0
0
0
0
0
0
0
0
0
0
0
0
0
0
0
0
0
1.41467e-05
7.40984e-06
5.51818e-06
4.02058e-06
2.56903e-06
1.46581e-06
8.05641e-07
5.11005e-07
4.89399e-07
7.08659e-07
1.05469e-06
1.42319e-06
1.83152e-06
2.27021e-06
2.64944e-06
2.7464e-06
2.41862e-06
2.06433e-06
2.70407e-06
5.29815e-06
1.05823e-05
1.68142e-05
2.23181e-05
2.79834e-05
3.0622e-05
3.02455e-05
8.58379e-05
2.8833e-05
2.75452e-05
2.73034e-05
3.01155e-05
3.3303e-05
4.00708e-05
4.80567e-05
5.61699e-05
6.21079e-05
7.39138e-05
9.95308e-05
0.00011575
0.000109757
9.85859e-05
7.59588e-05
2.6049e-05
1.00499e-05
4.27952e-06
1.9207e-06
7.80288e-07
1.22912e-07
5.10103e-08
1.25272e-08
0
0
0
0
0
0
0
0
0
0
0
0
0
0
0
0
0
0
0
0
0
0
0
0
0
0
0
0
0
0
0
0
0
0
0
0
0
0
0
0
0
0
0
0
0
0
0
0
0
0
6.57999e-06
2.29718e-06
1.63988e-06
1.42326e-06
1.07525e-06
6.95758e-07
4.40328e-07
3.33964e-07
3.68009e-07
5.83594e-07
8.68643e-07
1.16782e-06
1.51311e-06
1.91128e-06
2.33297e-06
2.61114e-06
2.51631e-06
2.12709e-06
2.13443e-06
3.36195e-06
6.13498e-06
1.08404e-05
1.56087e-05
1.95416e-05
2.23977e-05
7.908e-05
7.10718e-05
2.12999e-05
2.05855e-05
2.08523e-05
6.90798e-05
2.7157e-05
3.5012e-05
3.93401e-05
4.35555e-05
5.19715e-05
6.71486e-05
9.45353e-05
0.000102565
9.47939e-05
8.36903e-05
5.79726e-05
1.71494e-05
3.28685e-05
3.67513e-06
1.55042e-06
6.10992e-07
9.72721e-08
3.69729e-08
2.00768e-09
5.15286e-14
0
0
0
0
0
0
0
0
0
0
0
0
0
0
0
0
0
0
0
0
0
0
0
0
0
0
0
0
0
0
0
0
0
0
0
0
0
0
0
0
0
0
0
0
0
0
0
0
0
4.57199e-07
4.27377e-07
3.94824e-07
3.67456e-07
3.17944e-07
2.54943e-07
2.09073e-07
2.08787e-07
2.85765e-07
4.70385e-07
6.86395e-07
9.29157e-07
1.2251e-06
1.5674e-06
1.96827e-06
2.34819e-06
2.52941e-06
2.36951e-06
2.04311e-06
2.0472e-06
2.72401e-06
4.60307e-06
7.7167e-06
1.0906e-05
1.24028e-05
1.26557e-05
1.23378e-05
1.21038e-05
1.19567e-05
1.25595e-05
1.46618e-05
1.83921e-05
2.05736e-05
2.39986e-05
2.99772e-05
3.95986e-05
5.77546e-05
8.61398e-05
8.20905e-05
7.58556e-05
6.34794e-05
3.20084e-05
6.35588e-05
5.77175e-06
2.6984e-06
9.67823e-07
2.26392e-07
5.63853e-08
3.95135e-14
0
0
0
0
0
0
0
0
0
0
0
0
0
0
0
0
0
0
0
0
0
0
0
0
0
0
0
0
0
0
0
0
0
0
0
0
0
0
0
0
0
0
0
0
0
0
0
0
0
0
0
4.65582e-08
6.93405e-08
8.56493e-08
9.07922e-08
9.08197e-08
9.13284e-08
1.00893e-07
1.35782e-07
2.26168e-07
3.74464e-07
5.41196e-07
7.02782e-07
9.29636e-07
1.20948e-06
1.5266e-06
1.86011e-06
2.11691e-06
2.16926e-06
1.97202e-06
1.66092e-06
1.48302e-06
1.79068e-06
2.58258e-06
3.73548e-06
4.96166e-06
5.5309e-06
5.61688e-06
5.43712e-06
5.42354e-06
6.03254e-06
7.29897e-06
9.22844e-06
1.13293e-05
1.47764e-05
1.9885e-05
3.00534e-05
4.96487e-05
6.77263e-05
5.94053e-05
5.36951e-05
3.64876e-05
8.13489e-05
3.08879e-05
4.04994e-06
1.62332e-06
5.12069e-07
1.02084e-07
1.33409e-08
0
0
0
0
0
0
0
0
0
0
0
0
0
0
0
0
0
0
0
0
0
0
0
0
0
0
0
0
0
0
0
0
0
0
0
0
0
0
0
0
0
0
0
0
0
0
0
0
0
0
0
0
5.56173e-09
1.48775e-08
2.27735e-08
2.97428e-08
3.60346e-08
4.54965e-08
6.51633e-08
1.06441e-07
1.87091e-07
3.03711e-07
4.33688e-07
5.61564e-07
7.04961e-07
9.36288e-07
1.18824e-06
1.43869e-06
1.64454e-06
1.73237e-06
1.65153e-06
1.42443e-06
1.13974e-06
9.45998e-07
9.52299e-07
1.15488e-06
1.41683e-06
1.59014e-06
1.6418e-06
1.7089e-06
2.07027e-06
2.68595e-06
3.70759e-06
4.89911e-06
6.78277e-06
9.6067e-06
1.41356e-05
2.40291e-05
4.38761e-05
4.46938e-05
3.99144e-05
3.11638e-05
1.60397e-05
7.89286e-06
5.39262e-06
2.56297e-06
9.1857e-07
2.43934e-07
6.15083e-08
4.5479e-26
0
0
0
0
0
0
0
0
0
0
0
0
0
0
0
0
0
0
0
0
0
0
0
0
0
0
0
0
0
0
0
0
0
0
0
0
0
0
0
0
0
0
0
0
0
0
0
0
0
0
0
0
1.03469e-09
3.76124e-09
7.65032e-09
1.2578e-08
2.05986e-08
3.41731e-08
5.76008e-08
9.84164e-08
1.65034e-07
2.53753e-07
3.51315e-07
4.51754e-07
5.65827e-07
7.24955e-07
9.43494e-07
1.14195e-06
1.29716e-06
1.37104e-06
1.3349e-06
1.19393e-06
9.84962e-07
7.72446e-07
5.95325e-07
4.81095e-07
4.37621e-07
4.74295e-07
5.48987e-07
6.8984e-07
9.15345e-07
1.28119e-06
1.95109e-06
2.8652e-06
4.42357e-06
6.80097e-06
1.1073e-05
2.03893e-05
3.14322e-05
2.82275e-05
2.27433e-05
1.35178e-05
7.00884e-06
6.03483e-06
3.5418e-06
1.52937e-06
5.38346e-07
1.21664e-07
3.29483e-08
0
0
0
0
0
0
0
0
0
0
0
0
0
0
0
0
0
0
0
0
0
0
0
0
0
0
0
0
0
0
0
0
0
0
0
0
0
0
0
0
0
0
0
0
0
0
0
0
0
0
0
0
0
0
1.43358e-09
3.53904e-09
8.83791e-09
1.93578e-08
3.64206e-08
6.43179e-08
1.03748e-07
1.54974e-07
2.19357e-07
2.89546e-07
3.65089e-07
4.62649e-07
5.95885e-07
7.66969e-07
9.43451e-07
1.07772e-06
1.14568e-06
1.14319e-06
1.06944e-06
9.331e-07
7.58501e-07
5.76974e-07
4.15491e-07
2.95919e-07
2.38036e-07
2.4399e-07
2.88618e-07
4.08584e-07
6.44886e-07
1.13191e-06
1.87456e-06
3.22074e-06
5.3596e-06
9.41191e-06
1.79362e-05
1.79731e-05
1.56839e-05
1.05003e-05
5.82695e-06
5.54319e-06
4.60319e-06
2.30824e-06
8.2018e-07
2.1913e-07
6.58278e-08
9.49594e-14
0
0
0
0
0
0
0
0
0
0
0
0
0
0
0
0
0
0
0
0
0
0
0
0
0
0
0
0
0
0
0
0
0
0
0
0
0
0
0
0
0
0
0
0
0
0
0
0
0
0
0
0
0
0
9.89271e-11
4.00354e-09
1.05643e-08
2.4085e-08
4.57865e-08
7.26189e-08
1.07636e-07
1.43891e-07
1.89494e-07
2.39679e-07
3.39895e-07
4.84794e-07
6.71963e-07
8.60531e-07
1.04433e-06
1.16919e-06
1.22302e-06
1.20371e-06
1.11481e-06
9.68316e-07
7.82986e-07
5.82481e-07
3.91658e-07
2.36642e-07
1.44468e-07
1.10928e-07
1.14275e-07
1.87121e-07
3.87668e-07
8.17023e-07
1.45394e-06
2.59329e-06
4.59804e-06
8.05955e-06
1.04538e-05
9.33971e-06
6.79523e-06
5.54298e-06
4.47723e-06
4.85641e-06
2.81769e-06
1.22018e-06
4.20037e-07
9.64924e-08
1.41356e-08
0
0
0
0
0
0
0
0
0
0
0
0
0
0
0
0
0
0
0
0
0
0
0
0
0
0
0
0
0
0
0
0
0
0
0
0
0
0
0
0
0
0
0
0
0
0
0
0
0
0
0
0
0
0
0
5.85572e-11
3.57804e-09
1.12532e-08
2.44099e-08
3.98581e-08
5.87739e-08
7.86058e-08
1.06682e-07
1.50859e-07
2.62222e-07
4.24845e-07
6.13566e-07
8.50465e-07
1.07991e-06
1.26387e-06
1.38064e-06
1.41093e-06
1.35561e-06
1.2252e-06
1.03795e-06
8.15359e-07
5.82093e-07
3.63692e-07
1.9042e-07
9.36335e-08
6.20816e-08
5.63447e-08
1.24062e-07
3.26471e-07
7.01654e-07
1.19216e-06
1.94201e-06
3.15064e-06
4.78019e-06
5.50927e-06
4.08331e-06
3.01579e-06
4.00328e-06
3.5205e-06
2.93535e-06
1.60978e-06
6.05905e-07
1.58241e-07
5.43888e-08
0
0
0
0
0
0
0
0
0
0
0
0
0
0
0
0
0
0
0
0
0
0
0
0
0
0
0
0
0
0
0
0
0
0
0
0
0
0
0
0
0
0
0
0
0
0
0
0
0
0
0
0
0
0
0
0
0
1.45884e-09
2.87163e-09
5.83086e-09
8.21003e-09
9.61866e-09
1.45746e-08
3.69499e-08
1.24107e-07
3.05411e-07
5.48069e-07
8.01321e-07
1.08945e-06
1.389e-06
1.58046e-06
1.68343e-06
1.68076e-06
1.57132e-06
1.37667e-06
1.12785e-06
8.52828e-07
5.80445e-07
3.38505e-07
1.59554e-07
6.82904e-08
4.56387e-08
4.18283e-08
1.42144e-07
3.37273e-07
5.60646e-07
7.63033e-07
1.22211e-06
1.90569e-06
2.54427e-06
2.57097e-06
2.1895e-06
2.29412e-06
3.36124e-06
2.32617e-06
1.61522e-06
7.38395e-07
2.61275e-07
8.32696e-08
2.87329e-08
0
0
0
0
0
0
0
0
0
0
0
0
0
0
0
0
0
0
0
0
0
0
0
0
0
0
0
0
0
0
0
0
0
0
0
0
0
0
0
0
0
0
0
0
0
0
0
0
0
0
0
0
0
0
0
0
0
0
1.03113e-09
2.40653e-09
1.60669e-09
2.65715e-09
2.98868e-09
4.58348e-09
7.4804e-08
3.14114e-07
6.63305e-07
1.01238e-06
1.37539e-06
1.75433e-06
1.95766e-06
2.03952e-06
1.98878e-06
1.80863e-06
1.53757e-06
1.2179e-06
8.87833e-07
5.77719e-07
3.15807e-07
1.31963e-07
4.48946e-08
2.74607e-08
6.66613e-08
1.57479e-07
2.82368e-07
3.60252e-07
5.0193e-07
8.18096e-07
1.15046e-06
1.38515e-06
1.50491e-06
1.88098e-06
2.06742e-06
2.36268e-06
1.39637e-06
6.98667e-07
3.27835e-07
9.63504e-08
4.60483e-08
0
0
0
0
0
0
0
0
0
0
0
0
0
0
0
0
0
0
0
0
0
0
0
0
0
0
0
0
0
0
0
0
0
0
0
0
0
0
0
0
0
0
0
0
0
0
0
0
0
0
0
0
0
0
0
0
0
0
0
3.02387e-10
6.2508e-10
1.6446e-09
2.05282e-09
2.8618e-09
5.69031e-09
3.88415e-08
2.57585e-07
6.87513e-07
1.17099e-06
1.65753e-06
2.09693e-06
2.31477e-06
2.3783e-06
2.27982e-06
2.03237e-06
1.68726e-06
1.30294e-06
9.25984e-07
5.86652e-07
3.1052e-07
1.21596e-07
3.46727e-08
3.78296e-08
9.31586e-08
1.48502e-07
2.02564e-07
2.91305e-07
5.34511e-07
8.62728e-07
1.22581e-06
1.22385e-06
1.68072e-06
1.90629e-06
1.65202e-06
1.47122e-06
7.11953e-07
3.29811e-07
1.13777e-07
4.85386e-08
3.68235e-14
0
0
0
0
0
0
0
0
0
0
0
0
0
0
0
0
0
0
0
0
0
0
0
0
0
0
0
0
0
0
0
0
0
0
0
0
0
0
0
0
0
0
0
0
0
0
0
0
0
0
0
0
0
0
0
0
0
0
0
0
2.81521e-10
6.94241e-10
1.5484e-09
2.65125e-09
5.8833e-09
2.33368e-08
1.58763e-07
5.84834e-07
1.1479e-06
1.78898e-06
2.32595e-06
2.58213e-06
2.64195e-06
2.51423e-06
2.22177e-06
1.82079e-06
1.39043e-06
9.82369e-07
6.26153e-07
3.41944e-07
1.51899e-07
6.41105e-08
5.52436e-08
8.84969e-08
1.48681e-07
2.67004e-07
5.28013e-07
9.98221e-07
1.39067e-06
2.02683e-06
1.55452e-06
1.9021e-06
1.68118e-06
1.20248e-06
7.92969e-07
3.75795e-07
1.21803e-07
5.63386e-08
1.47003e-13
0
0
0
0
0
0
0
0
0
0
0
0
0
0
0
0
0
0
0
0
0
0
0
0
0
0
0
0
0
0
0
0
0
0
0
0
0
0
0
0
0
0
0
0
0
0
0
0
0
0
0
0
0
0
0
0
0
0
0
0
0
0
5.75996e-10
9.452e-10
1.56638e-09
4.18298e-09
1.86138e-08
7.42786e-08
4.00389e-07
1.00128e-06
1.7081e-06
2.365e-06
2.70629e-06
2.79396e-06
2.67318e-06
2.36431e-06
1.94127e-06
1.48964e-06
1.0731e-06
7.17954e-07
4.35075e-07
2.35279e-07
1.35712e-07
1.1992e-07
1.64454e-07
2.9079e-07
5.58163e-07
1.0232e-06
1.85529e-06
1.89631e-06
1.99578e-06
1.69429e-06
1.58669e-06
1.1951e-06
6.83585e-07
3.82032e-07
1.4208e-07
6.9615e-08
1.31678e-08
0
0
0
0
0
0
0
0
0
0
0
0
0
0
0
0
0
0
0
0
0
0
0
0
0
0
0
0
0
0
0
0
0
0
0
0
0
0
0
0
0
0
0
0
0
0
0
0
0
0
0
0
0
0
0
0
0
0
0
0
0
0
0
0
0
1.06185e-09
1.93412e-09
1.06599e-08
4.34564e-08
2.02946e-07
7.23938e-07
1.40658e-06
2.17121e-06
2.66203e-06
2.81432e-06
2.73341e-06
2.45536e-06
2.04624e-06
1.60792e-06
1.2139e-06