/*--------------------------------*- C++ -*----------------------------------*\
  =========                 |
  \\      /  F ield         | OpenFOAM: The Open Source CFD Toolbox
   \\    /   O peration     | Website:  https://openfoam.org
    \\  /    A nd           | Version:  6
     \\/     M anipulation  |
\*---------------------------------------------------------------------------*/
FoamFile
{
    version     2.0;
    format      ascii;
    class       volScalarField;
    location    "0.005";
    object      CH2CH2OH;
}
// * * * * * * * * * * * * * * * * * * * * * * * * * * * * * * * * * * * * * //

dimensions      [0 0 0 0 0 0 0];

internalField   nonuniform List<scalar> 
8000
(
1.00531e-21
3.1292e-17
2.05785e-16
2.19024e-15
3.37909e-14
5.40116e-13
5.93372e-12
3.57017e-11
1.24636e-10
3.11296e-10
6.09269e-10
1.00659e-09
1.53339e-09
2.00535e-09
2.01192e-09
1.95105e-09
2.65182e-09
5.7747e-09
1.78794e-08
7.7092e-08
3.40391e-07
1.19915e-06
1.34912e-06
1.15337e-06
5.68452e-07
2.34254e-07
1.62179e-07
1.22732e-07
8.85882e-08
6.07534e-08
4.1805e-08
3.19608e-08
2.41055e-08
2.18388e-08
1.84243e-08
1.79409e-08
1.86283e-08
1.97623e-08
2.13798e-08
2.15669e-08
2.43818e-08
2.21725e-08
1.48554e-08
1.07973e-08
1.55116e-08
5.30855e-08
2.29101e-07
7.81188e-07
2.28174e-06
2.99816e-06
7.34414e-07
9.25635e-08
9.04961e-10
0
0
0
0
0
0
0
0
0
0
0
0
0
0
0
0
0
0
0
0
0
0
0
0
0
0
0
0
0
0
0
0
0
0
0
0
0
0
0
0
0
0
0
0
0
0
0
1.61667e-20
2.90745e-16
8.07932e-16
7.50817e-15
8.0541e-14
1.21095e-12
1.47199e-11
1.05339e-10
4.4191e-10
1.15308e-09
2.17694e-09
3.24008e-09
4.50747e-09
6.28657e-09
5.77433e-09
4.30906e-09
4.9317e-09
9.91466e-09
2.49192e-08
8.6453e-08
3.67765e-07
1.38215e-06
1.06932e-09
4.69706e-07
4.57328e-07
2.35402e-07
1.48789e-07
1.12045e-07
8.97683e-08
6.05802e-08
4.12445e-08
3.16572e-08
2.41145e-08
2.20084e-08
1.8734e-08
1.91188e-08
1.893e-08
2.11185e-08
2.14958e-08
2.62672e-08
2.67577e-08
2.21337e-08
1.48713e-08
1.08086e-08
1.53706e-08
5.35464e-08
2.6806e-07
1.00911e-06
2.30754e-06
2.59775e-06
9.23101e-07
1.48549e-07
4.51631e-10
0
0
0
0
0
0
0
0
0
0
0
0
0
0
0
0
0
0
0
0
0
0
0
0
0
0
0
0
0
0
0
0
0
0
0
0
0
0
0
0
0
0
0
0
0
0
0
1.16974e-16
8.55995e-08
1.11784e-16
2.04005e-07
3.75735e-13
4.37748e-12
4.85192e-11
4.52548e-10
8.60069e-07
8.00271e-09
1.55374e-08
2.00029e-08
2.17539e-08
3.10229e-08
1.80764e-06
1.45452e-06
1.35298e-08
2.78934e-08
5.19909e-08
1.10219e-07
3.12391e-07
1.01052e-06
9.82238e-07
1.25613e-06
8.58858e-07
2.41304e-07
3.0378e-09
1.00367e-07
8.04869e-08
5.52285e-08
3.9194e-08
3.11203e-08
2.4242e-08
2.24383e-08
1.94937e-08
2.04076e-08
2.04054e-08
2.14617e-08
2.31568e-08
2.62611e-08
2.66415e-08
2.42172e-08
1.59384e-08
1.13296e-08
1.32516e-08
5.38713e-08
5.50341e-06
1.45418e-06
7.20878e-06
2.18399e-06
6.77986e-07
8.42267e-08
1.78691e-12
0
0
0
0
0
0
0
0
0
0
0
0
0
0
0
0
0
0
0
0
0
0
0
0
0
0
0
0
0
0
0
0
0
0
0
0
0
0
0
0
0
0
0
0
0
0
0
1.66446e-20
4.75486e-15
1.51847e-13
1.43277e-12
6.91366e-12
2.14366e-11
1.293e-10
1.07484e-09
8.39967e-09
1.81208e-06
1.14499e-07
1.24728e-07
1.1358e-07
2.07611e-06
2.32023e-08
1.84095e-08
3.07665e-08
1.02058e-07
2.92267e-06
1.89438e-07
3.54191e-07
5.57109e-06
1.50049e-06
1.54174e-06
1.18176e-06
4.42946e-07
1.73632e-07
1.02683e-07
6.83255e-08
2.08188e-07
3.7797e-08
3.11833e-08
2.46938e-08
2.31844e-08
2.05956e-08
2.16763e-08
2.22152e-08
2.33036e-08
2.31427e-08
2.8698e-08
2.63863e-08
2.401e-08
1.58988e-08
1.13425e-08
1.30053e-08
5.29455e-08
4.23927e-07
1.93237e-06
2.81316e-06
1.49128e-06
3.37085e-07
3.01629e-08
5.68728e-163
0
0
0
0
0
0
0
0
0
0
0
0
0
0
0
0
0
0
0
0
0
0
0
0
0
0
0
0
0
0
0
0
0
0
0
0
0
0
0
0
0
0
0
0
0
0
0
2.36076e-18
5.58233e-15
3.76478e-07
1.57105e-11
5.66158e-07
1.1406e-10
2.86452e-10
5.41685e-07
1.37975e-08
2.1983e-06
8.10589e-06
7.84842e-06
5.3318e-06
8.66399e-08
3.59889e-08
1.84116e-06
7.99849e-08
3.53422e-06
3.02318e-07
3.61195e-07
4.56645e-06
5.64673e-06
1.33323e-06
7.5869e-06
6.6146e-06
5.32407e-07
1.88614e-07
9.51421e-08
7.91875e-08
5.84325e-08
4.14305e-08
3.25803e-08
2.55878e-08
2.16171e-08
2.27611e-08
2.49286e-11
2.59e-08
2.51079e-08
3.066e-08
2.83012e-08
2.59263e-08
2.36348e-08
1.94836e-08
1.19382e-08
1.27744e-08
5.13679e-08
4.90925e-07
2.06701e-06
2.07208e-06
8.36053e-07
1.77172e-07
5.24497e-09
0
0
0
0
0
0
0
0
0
0
0
0
0
0
0
0
0
0
0
0
0
0
0
0
0
0
0
0
0
0
0
0
0
0
0
0
0
0
0
0
0
0
0
0
0
0
0
0
8.58501e-17
9.63712e-16
5.37705e-12
3.26755e-07
5.87712e-10
4.36726e-07
5.40257e-10
1.40595e-09
6.48747e-09
3.62784e-08
1.21239e-07
1.2544e-07
7.6319e-08
3.95866e-08
3.65634e-08
7.22216e-08
1.96495e-07
4.77086e-06
7.15367e-07
5.95291e-06
7.94992e-07
6.39141e-06
1.31105e-06
7.65002e-06
5.97848e-06
5.00333e-07
2.65552e-07
6.51884e-07
9.52812e-07
6.68884e-08
4.52256e-08
3.35662e-08
7.19031e-09
2.27256e-08
2.39743e-08
2.52298e-08
2.59007e-08
3.0049e-08
2.99054e-08
2.7614e-08
2.51975e-08
2.304e-08
2.5571e-12
1.1917e-08
1.25896e-08
4.92978e-08
5.14899e-07
2.23494e-06
1.67896e-06
6.43766e-07
2.22497e-07
5.06342e-08
0
0
0
0
0
0
0
0
0
0
0
0
0
0
0
0
0
0
0
0
0
0
0
0
0
0
0
0
0
0
0
0
0
0
0
0
0
0
0
0
0
0
0
0
0
0
0
0
5.97591e-17
1.43154e-14
1.2617e-12
1.47249e-11
7.74688e-11
2.07154e-10
5.82061e-07
2.40217e-09
6.39125e-09
1.32261e-08
1.19321e-06
1.74599e-06
1.60657e-06
3.69112e-08
6.59416e-08
1.55538e-07
3.15094e-07
6.74194e-07
6.37927e-06
1.07407e-06
6.3478e-06
1.17772e-06
6.94397e-06
1.16189e-06
1.69236e-07
3.09512e-07
3.34193e-07
2.19151e-07
1.30242e-07
7.47081e-08
4.94753e-08
3.76858e-08
2.88316e-08
2.41266e-08
2.46856e-08
2.67503e-08
2.73906e-08
3.20168e-08
2.85719e-08
1.39123e-12
2.41503e-08
2.22099e-08
2.05036e-08
1.18032e-08
1.24896e-08
4.71475e-08
5.07561e-07
2.68366e-06
1.78133e-06
6.04601e-07
3.36149e-07
1.00214e-07
0
0
0
0
0
0
0
0
0
0
0
0
0
0
0
0
0
0
0
0
0
0
0
0
0
0
0
0
0
0
0
0
0
0
0
0
0
0
0
0
0
0
0
0
0
0
0
0
1.02127e-07
1.59679e-07
1.46716e-12
2.16545e-11
8.86787e-11
4.97485e-07
2.11823e-09
1.34507e-08
1.83491e-06
2.70968e-08
2.39368e-08
2.5433e-08
3.58212e-08
9.38673e-08
2.90951e-06
4.09918e-06
6.37235e-06
7.44532e-06
1.12867e-06
6.75629e-06
1.26843e-06
1.34234e-06
6.76243e-06
1.1535e-06
4.82079e-07
4.60477e-06
5.01321e-07
3.04149e-07
1.41243e-07
7.55976e-08
5.24268e-08
3.56845e-08
2.79451e-08
2.54032e-08
2.64564e-08
2.84877e-08
3.22235e-08
3.04085e-08
2.66823e-08
2.4573e-08
2.27025e-08
2.12307e-08
1.97144e-08
1.23563e-08
1.248e-08
4.56291e-08
4.97175e-07
6.17492e-06
1.53105e-06
2.14529e-08
5.57409e-09
5.05815e-08
0
0
0
0
0
0
0
0
0
0
0
0
0
0
0
0
0
0
0
0
0
0
0
0
0
0
0
0
0
0
0
0
0
0
0
0
0
0
0
0
0
0
0
0
0
0
0
0
1.03945e-07
2.33436e-07
7.76478e-12
1.98704e-10
4.02987e-07
1.3854e-09
7.69916e-07
5.84221e-08
4.21434e-06
1.00048e-07
2.1545e-06
1.95999e-06
9.49272e-08
1.75057e-07
2.77246e-07
4.78575e-06
6.99408e-06
8.0832e-06
7.23069e-07
8.59051e-07
1.23036e-06
5.9383e-06
1.35972e-06
5.69294e-06
4.30718e-06
7.25585e-07
6.04041e-07
3.09041e-07
1.17229e-07
6.82158e-08
1.11419e-08
6.7668e-09
2.94002e-08
2.81593e-08
2.95455e-08
2.9857e-08
3.37646e-08
2.82255e-08
2.43237e-08
2.2316e-08
1.13313e-12
1.05558e-12
1.89367e-08
1.21845e-08
5.61621e-10
7.73149e-08
5.60633e-07
2.91372e-06
1.44589e-06
3.38123e-07
3.05791e-07
3.49195e-08
0
0
0
0
0
0
0
0
0
0
0
0
0
0
0
0
0
0
0
0
0
0
0
0
0
0
0
0
0
0
0
0
0
0
0
0
0
0
0
0
0
0
0
0
0
0
0
0
1.53977e-17
1.94858e-07
2.74969e-07
4.47435e-07
9.60006e-10
7.2625e-07
1.57868e-08
5.67116e-08
1.38939e-07
2.61792e-06
1.81158e-07
2.49021e-07
3.19843e-06
4.303e-06
7.15825e-06
5.98752e-06
8.22708e-07
1.05826e-06
4.04051e-07
6.88997e-07
9.43485e-07
8.7181e-07
1.03321e-06
8.97188e-07
7.90396e-07
7.50811e-07
5.33864e-07
2.62347e-07
1.09807e-07
2.97347e-07
4.40599e-08
3.38091e-08
1.35884e-09
2.81904e-08
3.08842e-08
5.74126e-12
3.15471e-08
2.55453e-08
2.16415e-08
1.97901e-08
1.43217e-12
1.85138e-08
1.80638e-08
1.20054e-08
1.2886e-08
5.3423e-08
8.52256e-06
2.91502e-06
1.25006e-06
2.8916e-07
3.1834e-07
3.48429e-08
0
0
0
0
0
0
0
0
0
0
0
0
0
0
0
0
0
0
0
0
0
0
0
0
0
0
0
0
0
0
0
0
0
0
0
0
0
0
0
0
0
0
0
0
0
0
0
0
1.16435e-07
1.65171e-11
2.44577e-10
1.47842e-09
6.78572e-09
1.42083e-06
1.80373e-06
2.54577e-06
3.77123e-07
4.77277e-07
6.05382e-07
3.97582e-06
8.38833e-07
5.17325e-06
9.2274e-07
9.60436e-07
1.08921e-06
8.09513e-06
1.64603e-06
6.93419e-07
6.39896e-07
3.46151e-06
6.31481e-07
2.64966e-06
3.69726e-06
5.28513e-07
3.41267e-07
1.84549e-07
9.33223e-08
6.25335e-08
4.37131e-08
3.42168e-08
3.21872e-08
3.02149e-08
3.11606e-08
5.53467e-12
2.86799e-08
4.14033e-12
1.8819e-08
1.7115e-08
1.66744e-08
1.68965e-08
1.72022e-08
1.11753e-08
1.33803e-08
6.20973e-08
8.47532e-07
2.83768e-06
1.16191e-06
8.7719e-09
2.75602e-07
3.50304e-08
0
0
0
0
0
0
0
0
0
0
0
0
0
0
0
0
0
0
0
0
0
0
0
0
0
0
0
0
0
0
0
0
0
0
0
0
0
0
0
0
0
0
0
0
0
0
0
0
9.32534e-13
1.29817e-09
1.37883e-08
1.8589e-06
1.36122e-07
2.76702e-06
3.06249e-06
7.25819e-07
1.37578e-06
1.4365e-06
1.51435e-06
1.54913e-06
1.56689e-06
5.5001e-06
1.48539e-06
1.46372e-06
1.42614e-06
7.33102e-06
2.01803e-06
2.18073e-06
5.05754e-07
4.58357e-07
3.372e-07
2.47882e-07
3.24038e-07
3.22742e-07
1.96621e-07
1.58484e-06
7.69789e-08
4.81623e-08
4.0176e-08
3.58629e-08
3.2851e-08
3.10964e-11
2.83223e-08
3.03998e-08
4.50689e-12
1.93252e-08
1.59674e-08
1.4503e-08
1.44221e-08
1.54953e-08
2.97721e-12
1.10562e-08
1.41546e-08
3.83619e-07
9.72087e-06
2.20396e-06
1.05661e-06
3.89451e-07
3.38974e-09
4.10192e-08
1.14264e-09
0
0
0
0
0
0
0
0
0
0
0
0
0
0
0
0
0
0
0
0
0
0
0
0
0
0
0
0
0
0
0
0
0
0
0
0
0
0
0
0
0
0
0
0
0
0
0
1.70691e-10
1.44026e-07
4.70094e-07
3.87166e-06
4.42101e-06
4.96663e-06
1.36508e-06
6.01898e-06
3.79694e-07
4.37381e-06
4.67712e-06
4.512e-06
1.49716e-06
4.8993e-06
1.65948e-06
1.58948e-06
6.5515e-06
9.03651e-07
5.44007e-07
2.01913e-06
2.9063e-07
2.70718e-07
2.03933e-07
7.28372e-07
2.07988e-07
1.91783e-07
1.2982e-07
7.85516e-07
5.97844e-08
4.58013e-08
3.96681e-08
3.60605e-08
3.45162e-08
2.93602e-08
2.4705e-08
2.57657e-08
6.18565e-12
6.17237e-12
1.32797e-08
1.20951e-08
1.24018e-08
2.1429e-12
3.75972e-12
1.09885e-08
1.52338e-08
1.12142e-06
1.53186e-06
1.85174e-06
9.19781e-07
4.27172e-07
1.55465e-07
4.14583e-08
2.67491e-08
2.7946e-09
0
0
0
0
0
0
0
0
0
0
0
0
0
0
0
0
0
0
0
0
0
0
0
0
0
0
0
0
0
0
0
0
0
0
0
0
0
0
0
0
0
0
0
0
0
0
7.38158e-08
4.81208e-06
5.52744e-06
5.90011e-06
1.54255e-06
4.12731e-06
5.86413e-06
1.19746e-06
5.79593e-07
7.00748e-07
7.38384e-07
8.05179e-07
8.33067e-07
8.9743e-07
1.03453e-06
1.11025e-06
8.58936e-07
2.9557e-06
4.06935e-07
9.48366e-07
1.43094e-07
1.64406e-07
1.49351e-07
1.39636e-07
9.17911e-07
1.16729e-07
7.05224e-07
7.37415e-08
5.4718e-08
4.49853e-08
4.14793e-08
3.7254e-08
2.37016e-11
2.74429e-08
2.07664e-08
1.93118e-08
1.72356e-08
1.02525e-10
1.07815e-08
9.97083e-09
1.05865e-08
1.25897e-08
1.34172e-08
1.04349e-08
1.95854e-08
1.39075e-07
1.77431e-06
2.15053e-06
7.63511e-07
3.62177e-07
9.78637e-08
4.21473e-08
3.39336e-08
2.5964e-08
1.69392e-09
0
0
0
0
0
0
0
0
0
0
0
0
0
0
0
0
0
0
0
0
0
0
0
0
0
0
0
0
0
0
0
0
0
0
0
0
0
0
0
0
0
0
0
0
0
6.83059e-06
1.26115e-11
1.27976e-07
1.86692e-06
3.52691e-07
1.18012e-06
4.72194e-07
2.69993e-06
1.03094e-06
2.57515e-07
1.28719e-06
2.47403e-07
2.25792e-06
2.86418e-07
1.77258e-06
4.40268e-07
5.30141e-07
4.79457e-07
3.22752e-07
3.1226e-07
1.13193e-07
3.10787e-07
1.1774e-07
1.11121e-07
1.01937e-07
2.64668e-07
7.5573e-08
5.60767e-08
4.59638e-08
2.71333e-10
6.98163e-11
3.72081e-11
2.17876e-11
1.44088e-10
4.04367e-10
5.73409e-10
9.85184e-09
7.44242e-09
6.09627e-11
7.5147e-09
7.82537e-12
1.12886e-08
7.62011e-12
1.00156e-10
2.20894e-08
4.54632e-06
1.99676e-06
1.9151e-06
6.94129e-07
3.36798e-07
8.11719e-08
4.15703e-08
3.56805e-08
2.93044e-08
1.89184e-08
0
0
0
0
0
0
0
0
0
0
0
0
0
0
0
0
0
0
0
0
0
0
0
0
0
0
0
0
0
0
0
0
0
0
0
0
0
0
0
0
0
0
0
0
0
4.9801e-07
1.59034e-07
1.44621e-07
3.46216e-10
1.3643e-07
2.46404e-07
2.01451e-07
1.76153e-07
1.93412e-07
1.44619e-07
1.75665e-07
9.29519e-09
1.15204e-07
1.26661e-07
1.4282e-07
1.90843e-07
2.56145e-07
2.86381e-07
2.11215e-07
2.7494e-07
1.17528e-07
1.00671e-07
9.00297e-08
8.50648e-08
7.94685e-08
6.23034e-08
5.50602e-08
4.46907e-08
3.91964e-08
3.74963e-08
7.49421e-11
2.83196e-08
2.31636e-08
1.61986e-08
1.18885e-08
1.30838e-09
1.47172e-09
4.9684e-09
3.6609e-10
1.87973e-11
5.25089e-09
5.26462e-12
1.27358e-11
1.01742e-08
3.01315e-08
3.85792e-07
2.24085e-06
1.64411e-06
6.05202e-07
3.3131e-07
6.98168e-08
3.76209e-08
3.34753e-08
3.05168e-08
5.477e-08
0
0
0
0
0
0
0
0
0
0
0
0
0
0
0
0
0
0
0
0
0
0
0
0
0
0
0
0
0
0
0
0
0
0
0
0
0
0
0
0
0
0
0
0
0
7.29125e-10
1.25261e-07
9.19115e-08
7.67576e-08
7.76708e-08
1.15529e-07
1.13387e-07
1.12575e-07
1.22135e-07
1.47283e-10
1.32287e-07
5.72095e-12
1.61116e-10
7.04912e-08
7.95427e-08
8.49735e-08
1.08283e-07
1.40389e-07
1.28069e-07
1.13162e-07
8.85337e-08
7.29959e-08
6.72737e-08
1.65517e-08
4.67103e-09
4.67799e-08
1.74344e-09
6.83919e-10
4.07996e-10
2.29304e-10
2.22157e-08
1.94236e-08
1.44421e-08
1.06989e-08
2.80067e-09
3.6414e-09
3.56804e-09
2.84413e-09
2.65959e-09
7.81968e-11
1.91476e-11
6.07292e-09
3.00367e-11
1.04357e-08
1.7142e-07
8.22681e-06
3.63543e-06
1.38411e-06
5.50029e-07
3.13122e-07
5.02766e-08
8.23404e-09
8.12308e-10
2.54386e-09
1.81087e-10
0
0
0
0
0
0
0
0
0
0
0
0
0
0
0
0
0
0
0
0
0
0
0
0
0
0
0
0
0
0
0
0
0
0
0
0
0
0
0
0
0
0
0
0
0
2.39427e-09
4.18301e-08
2.87592e-08
3.26942e-08
3.86099e-08
1.63358e-09
5.8233e-08
5.84428e-08
6.93342e-08
4.88057e-08
5.69405e-08
1.76909e-11
2.66063e-11
4.77532e-10
3.40553e-08
4.44502e-08
1.37808e-07
7.4567e-08
1.88258e-07
7.76737e-08
6.22105e-08
9.42103e-08
5.0374e-08
4.34312e-08
4.12148e-08
3.55806e-08
3.02312e-08
2.37162e-08
1.9504e-08
1.69284e-08
1.54032e-08
1.66918e-09
2.76191e-09
6.67164e-09
7.12949e-09
3.06883e-09
2.17001e-09
1.57998e-09
1.57423e-09
2.11365e-09
3.46984e-11
2.23941e-11
7.01732e-09
1.04223e-08
4.66976e-07
9.2304e-06
2.3522e-06
1.19074e-06
4.94038e-07
1.30928e-07
6.75185e-09
0
0
0
0
0
0
0
0
0
0
0
0
0
0
0
0
0
0
0
0
0
0
0
0
0
0
0
0
0
0
0
0
0
0
0
0
0
0
0
0
0
0
0
0
0
0
0
0
0
2.04399e-09
1.82544e-08
2.16415e-08
6.99256e-09
5.87328e-09
1.40832e-08
1.28197e-08
1.33132e-08
1.79834e-08
1.38207e-08
8.39563e-09
4.74621e-09
1.03849e-08
2.8198e-08
8.08403e-09
1.41232e-08
2.32932e-08
3.81388e-08
4.594e-08
4.76057e-08
3.92413e-08
3.38732e-08
3.45036e-08
3.46085e-08
2.87734e-08
2.33516e-09
1.87002e-08
3.61909e-09
1.33437e-08
1.04854e-08
4.22247e-09
6.62223e-09
5.96967e-09
9.71415e-09
1.84766e-08
1.85209e-09
1.21568e-09
9.10885e-10
3.57773e-09
1.34221e-09
7.06594e-11
3.7803e-09
6.32018e-09
1.73051e-08
1.27063e-06
1.29743e-06
2.24855e-06
9.84765e-07
3.98807e-07
8.13609e-08
0
0
0
0
0
0
0
0
0
0
0
0
0
0
0
0
0
0
0
0
0
0
0
0
0
0
0
0
0
0
0
0
0
0
0
0
0
0
0
0
0
0
0
0
0
0
0
0
0
0
1.8615e-09
6.08912e-09
1.77824e-08
2.38259e-08
1.154e-08
4.83553e-09
4.358e-09
2.98555e-09
1.20521e-09
9.59993e-10
7.97696e-10
7.12623e-10
7.6036e-10
5.92866e-10
2.01219e-11
9.86638e-10
5.19258e-09
1.44148e-08
2.39523e-08
1.1956e-08
2.35912e-08
1.59731e-08
2.25383e-08
2.27235e-08
2.10657e-08
1.45721e-08
1.17316e-08
9.97581e-09
8.20288e-09
3.24408e-09
1.38152e-08
5.18886e-09
2.94464e-08
4.24765e-08
1.74187e-09
1.09598e-09
2.18652e-08
4.86521e-10
4.8564e-09
9.00024e-10
1.65187e-09
1.23473e-10
6.16976e-09
1.42392e-08
2.98325e-06
1.61138e-06
2.07249e-06
7.87436e-07
3.08232e-07
6.75978e-08
1.01931e-09
0
0
0
0
0
0
0
0
0
0
0
0
0
0
0
0
0
0
0
0
0
0
0
0
0
0
0
0
0
0
0
0
0
0
0
0
0
0
0
0
0
0
0
0
0
0
0
0
0
1.80768e-09
2.686e-09
6.02724e-09
1.3625e-08
2.27721e-08
2.17068e-08
1.88705e-08
1.54494e-08
1.15507e-08
1.12613e-08
1.14584e-08
1.16099e-08
1.0584e-08
6.12057e-09
1.99382e-09
4.01716e-10
4.44283e-10
2.13575e-08
1.01496e-08
1.10469e-08
5.6118e-09
1.27951e-08
1.28443e-08
1.31648e-08
1.26794e-08
1.00452e-08
5.69368e-09
6.39425e-09
5.04085e-09
1.571e-08
4.49838e-09
3.31564e-09
2.5378e-09
1.82447e-09
1.05156e-09
6.26686e-10
3.07601e-10
2.0834e-10
5.83619e-09
2.54451e-09
1.33774e-09
2.93104e-09
6.46566e-09
1.66463e-07
5.05703e-06
1.87516e-06
1.83479e-06
7.00666e-07
3.41152e-07
8.00605e-08
2.82475e-08
0
0
0
0
0
0
0
0
0
0
0
0
0
0
0
0
0
0
0
0
0
0
0
0
0
0
0
0
0
0
0
0
0
0
0
0
0
0
0
0
0
0
0
0
0
0
0
0
0
1.81909e-09
2.07871e-09
2.71765e-09
4.82449e-09
1.08102e-08
1.82743e-08
2.19042e-08
2.5053e-08
2.67375e-08
3.00147e-08
4.02514e-08
5.4537e-08
5.31058e-08
2.89862e-08
9.05354e-09
1.84283e-09
1.40801e-10
5.60139e-10
3.11441e-09
9.29453e-09
7.77675e-09
7.34579e-09
7.56106e-09
2.70469e-09
3.5682e-09
5.67434e-09
4.9963e-09
4.4297e-09
3.45186e-09
5.91503e-08
1.03437e-07
2.52281e-09
1.91872e-09
1.39493e-09
1.81825e-07
4.35625e-10
1.06839e-10
1.71886e-08
7.4835e-09
4.55881e-10
1.1756e-09
2.78907e-09
7.28153e-09
2.74006e-08
3.23845e-07
2.05171e-06
1.56132e-06
6.24957e-07
3.3031e-07
1.8807e-07
3.13364e-08
2.15913e-08
0
0
0
0
0
0
0
0
0
0
0
0
0
0
0
0
0
0
0
0
0
0
0
0
0
0
0
0
0
0
0
0
0
0
0
0
0
0
0
0
0
0
0
0
0
0
0
0
1.86805e-09
2.03733e-09
2.25018e-09
2.72131e-09
4.52702e-09
8.60953e-09
1.32429e-08
1.8626e-08
2.68348e-08
5.70577e-08
1.33392e-07
2.14034e-07
2.03508e-07
1.08306e-07
3.2252e-08
6.14113e-09
9.61775e-10
2.24e-12
6.5877e-10
1.64984e-09
2.64118e-09
3.741e-09
4.64609e-09
4.81557e-09
4.43472e-09
3.23998e-09
1.37121e-08
2.86725e-09
2.74474e-09
2.64954e-09
2.51759e-09
2.69993e-07
3.53138e-07
9.24957e-10
4.95152e-10
2.27772e-10
9.13031e-11
1.91822e-11
8.3382e-11
3.52128e-10
1.00705e-09
2.7796e-09
9.92699e-09
4.17124e-08
5.4747e-07
2.09463e-06
1.3103e-06
5.67562e-07
3.09578e-07
8.52348e-08
3.05967e-08
2.39752e-08
0
0
0
0
0
0
0
0
0
0
0
0
0
0
0
0
0
0
0
0
0
0
0
0
0
0
0
0
0
0
0
0
0
0
0
0
0
0
0
0
0
0
0
0
0
0
0
0
1.95061e-09
2.15882e-09
2.3259e-09
2.51567e-09
3.0182e-09
4.23869e-09
6.519e-09
1.22503e-08
4.53819e-08
1.63218e-07
3.91228e-07
5.58325e-07
5.02626e-07
2.79791e-07
9.24537e-08
1.80113e-08
2.66166e-09
3.53423e-10
4.9329e-11
4.64655e-10
1.79243e-08
1.72208e-09
2.5261e-09
2.89441e-09
2.63999e-09
2.05657e-09
1.87944e-09
2.01017e-09
2.13874e-09
2.21422e-09
2.05971e-09
4.80245e-07
1.11392e-09
6.68327e-10
3.0397e-10
9.19299e-11
7.77278e-08
8.94667e-11
3.88117e-11
2.80028e-10
9.38471e-10
1.07595e-08
1.2674e-08
6.70088e-08
8.50337e-07
2.04331e-06
1.11782e-06
5.02977e-07
2.20991e-07
4.81116e-08
2.98382e-08
1.05239e-08
0
0
0
0
0
0
0
0
0
0
0
0
0
0
0
0
0
0
0
0
0
0
0
0
0
0
0
0
0
0
0
0
0
0
0
0
0
0
0
0
0
0
0
0
0
0
0
0
2.07635e-09
2.36781e-09
2.54414e-09
2.595e-09
2.58162e-09
2.71424e-09
4.82742e-09
2.105e-08
1.06889e-07
3.48046e-07
7.02547e-07
9.40889e-07
8.60193e-07
5.22043e-07
2.00781e-07
4.61039e-08
7.01317e-09
1.00284e-09
1.8881e-11
1.33862e-10
4.5018e-10
8.81684e-10
1.20779e-09
1.58771e-09
1.62996e-09
4.3196e-08
8.17735e-08
1.50598e-09
1.75295e-09
1.87552e-09
1.72489e-09
1.37023e-09
8.42718e-10
4.10073e-10
1.40081e-10
2.15092e-11
3.1072e-11
7.49685e-11
1.43427e-10
2.34504e-10
9.44207e-10
3.22492e-09
2.00867e-08
4.09557e-06
1.17877e-06
1.94834e-06
9.32796e-07
4.20948e-07
1.41278e-07
3.89086e-08
1.93796e-08
0
0
0
0
0
0
0
0
0
0
0
0
0
0
0
0
0
0
0
0
0
0
0
0
0
0
0
0
0
0
0
0
0
0
0
0
0
0
0
0
0
0
0
0
0
0
0
0
0
2.26124e-09
2.59358e-09
2.64903e-09
2.58631e-09
2.4647e-09
2.93213e-09
6.74108e-09
3.80756e-08
1.73661e-07
4.86722e-07
9.17886e-07
1.22638e-06
1.17599e-06
7.90519e-07
3.56101e-07
1.00502e-07
1.77278e-08
2.47143e-09
2.85177e-10
1.09793e-11
2.17101e-10
4.73857e-10
4.05574e-08
9.33327e-10
1.06417e-09
1.17479e-09
1.24903e-09
1.23826e-09
1.48145e-09
1.57057e-09
1.39333e-09
1.06217e-09
5.76709e-10
6.6753e-07
2.86435e-07
2.46832e-12
3.6547e-11
7.47897e-11
1.27176e-10
2.16573e-10
1.01753e-09
4.3594e-09
3.01121e-08
2.0409e-07
1.5154e-06
1.84566e-06
7.99454e-07
3.40995e-07
9.49551e-08
3.14033e-08
1.54377e-08
0
0
0
0
0
0
0
0
0
0
0
0
0
0
0
0
0
0
0
0
0
0
0
0
0
0
0
0
0
0
0
0
0
0
0
0
0
0
0
0
0
0
0
0
0
0
0
0
0
2.49773e-09
2.68668e-09
2.55551e-09
2.8705e-09
3.22142e-09
3.79312e-09
9.85809e-09
5.58471e-08
2.16804e-07
5.56817e-07
1.02904e-06
1.39403e-06
1.40273e-06
1.04166e-06
5.45381e-07
1.89295e-07
4.13925e-08
6.45817e-09
9.30946e-10
2.25497e-11
8.4527e-11
2.62514e-10
3.56852e-10
5.85745e-10
1.60893e-07
1.00595e-09
1.17234e-09
6.28146e-07
1.27087e-09
1.27246e-09
1.03156e-09
7.17788e-10
3.44245e-10
1.16277e-10
3.31997e-12
7.06291e-12
5.19786e-11
7.85259e-11
1.21822e-10
3.71034e-10
1.42452e-09
5.51491e-09
4.74999e-08
6.45763e-06
1.78442e-06
1.66415e-06
7.24337e-07
2.73835e-07
6.41724e-08
2.466e-08
0
0
0
0
0
0
0
0
0
0
0
0
0
0
0
0
0
0
0
0
0
0
0
0
0
0
0
0
0
0
0
0
0
0
0
0
0
0
0
0
0
0
0
0
0
0
0
0
0
0
2.63636e-09
2.80744e-09
3.43493e-09
4.16829e-09
4.16625e-09
4.0401e-09
1.69189e-08
7.73639e-08
2.48483e-07
5.96995e-07
1.08135e-06
1.4728e-06
1.53962e-06
1.24661e-06
7.49655e-07
3.13842e-07
8.6194e-08
1.64187e-08
2.54814e-09
3.17225e-10
5.40414e-07
1.47836e-10
3.23193e-10
5.08937e-10
4.11396e-07
9.07236e-10
1.07947e-09
1.02456e-09
1.10041e-09
9.74869e-10
6.72582e-10
4.19806e-10
1.74931e-10
4.53531e-11
2.04279e-12
2.53772e-11
6.64935e-11
7.74732e-11
1.20166e-10
4.44652e-10
7.89191e-08
8.54514e-09
7.98503e-08
5.52328e-07
1.95833e-06
1.4294e-06
6.38298e-07
2.16144e-07
4.64502e-08
2.0703e-08
0
0
0
0
0
0
0
0
0
0
0
0
0
0
0
0
0
0
0
0
0
0
0
0
0
0
0
0
0
0
0
0
0
0
0
0
0
0
0
0
0
0
0
0
0
0
0
0
0
0
2.48536e-09
3.72852e-09
4.24228e-09
3.56178e-09
3.68811e-09
9.95075e-09
3.50085e-08
1.05048e-07
2.76177e-07
6.16992e-07
1.09705e-06
1.48871e-06
1.59932e-06
1.39398e-06
9.46558e-07
4.67022e-07
1.58436e-07
3.76926e-08
7.099e-09
1.28287e-09
6.69085e-11
2.10358e-11
2.43172e-10
4.99502e-10
7.2262e-10
8.54243e-10
1.75072e-06
9.55901e-10
9.15049e-10
6.84798e-10
3.81911e-10
2.0451e-10
5.95895e-11
1.96396e-11
1.86565e-11
4.50253e-11
7.61667e-11
7.44516e-11
1.33957e-10
6.00999e-10
2.47113e-09
1.36855e-08
1.39352e-07
8.46875e-07
2.01745e-06
1.2193e-06
5.4188e-07
1.56404e-07
3.78191e-08
1.27983e-08
0
0
0
0
0
0
0
0
0
0
0
0
0
0
0
0
0
0
0
0
0
0
0
0
0
0
0
0
0
0
0
0
0
0
0
0
0
0
0
0
0
0
0
0
0
0
0
0
0
0
4.54458e-11
5.53046e-09
1.25353e-08
1.77813e-08
2.48151e-08
3.81719e-08
6.64826e-08
1.3379e-07
3.00898e-07
6.40325e-07
1.08457e-06
1.45221e-06
1.59657e-06
1.47885e-06
1.11282e-06
6.33584e-07
2.58546e-07
7.58319e-08
1.78054e-08
3.91317e-09
8.44141e-10
2.20224e-11
1.05113e-10
4.65547e-10
7.22982e-10
1.79547e-06
1.572e-06
8.3548e-10
6.80224e-10
4.34168e-10
1.3409e-06
7.06456e-11
5.60318e-12
1.44755e-11
3.17703e-11
5.38482e-11
8.02095e-11
6.54732e-11
1.78195e-10
9.30672e-10
4.15839e-09
2.47617e-08
2.49217e-07
7.59936e-06
1.98375e-06
1.01917e-06
4.62265e-07
1.13525e-07
2.8906e-08
1.93469e-09
6.15962e-11
0
0
0
0
0
0
0
0
0
0
0
0
0
0
0
0
0
0
0
0
0
0
0
0
0
0
0
0
0
0
0
0
0
0
0
0
0
0
0
0
0
0
0
0
0
0
0
0
0
1.79663e-07
2.21436e-07
2.04378e-07
1.66617e-07
1.27897e-07
1.04476e-07
1.10452e-07
1.69284e-07
3.30979e-07
6.32098e-07
9.93483e-07
1.32789e-06
1.52198e-06
1.50833e-06
1.27288e-06
8.65825e-07
4.55984e-07
1.85177e-07
6.21823e-08
1.94558e-08
6.11791e-09
1.65446e-09
1.37202e-10
1.41571e-10
6.06569e-10
7.32189e-10
6.76553e-10
5.05593e-10
3.16731e-10
1.61501e-10
4.55921e-11
3.52295e-13
5.26067e-12
1.64136e-11
3.67494e-11
6.30112e-11
8.89588e-11
4.99837e-11
3.50388e-10
1.83886e-09
9.26568e-09
6.83886e-08
8.32e-06
1.8871e-06
1.68063e-06
7.05553e-07
2.39691e-07
5.41105e-08
4.72337e-11
0
0
0
0
0
0
0
0
0
0
0
0
0
0
0
0
0
0
0
0
0
0
0
0
0
0
0
0
0
0
0
0
0
0
0
0
0
0
0
0
0
0
0
0
0
0
0
0
0
0
0
2.38657e-08
6.53005e-08
1.02094e-07
1.13969e-07
1.05577e-07
9.7564e-08
1.11412e-07
1.73326e-07
3.22727e-07
5.71763e-07
8.55764e-07
1.09849e-06
1.31706e-06
1.4128e-06
1.32001e-06
1.05208e-06
6.92723e-07
3.76579e-07
1.73589e-07
7.26805e-08
2.97092e-08
1.16694e-08
3.74905e-09
9.17895e-10
3.26024e-10
1.88415e-10
1.43862e-10
4.88842e-11
2.69586e-11
2.48079e-11
2.70841e-11
7.04915e-12
2.37715e-13
6.78313e-12
2.94768e-11
6.48082e-11
7.64962e-11
9.24688e-11
1.04157e-09
5.19563e-09
2.84494e-08
6.11757e-06
7.89863e-06
2.03657e-06
1.14792e-06
4.49503e-07
1.1908e-07
1.24981e-08
0
0
0
0
0
0
0
0
0
0
0
0
0
0
0
0
0
0
0
0
0
0
0
0
0
0
0
0
0
0
0
0
0
0
0
0
0
0
0
0
0
0
0
0
0
0
0
0
0
0
0
0
3.47189e-09
1.58298e-08
3.1797e-08
4.58157e-08
5.49778e-08
6.60814e-08
9.2701e-08
1.57325e-07
2.87853e-07
4.88354e-07
7.18294e-07
9.29751e-07
1.10317e-06
1.26381e-06
1.27396e-06
1.12244e-06
8.55544e-07
5.63642e-07
3.27153e-07
1.72095e-07
8.55117e-08
4.06839e-08
1.79257e-08
7.15283e-09
2.49597e-09
6.43531e-10
1.11294e-10
8.78374e-11
6.22785e-11
1.13537e-11
4.23005e-12
1.00281e-11
2.1805e-12
4.16775e-12
2.68325e-11
6.52405e-11
2.31425e-11
3.94554e-10
3.13438e-09
1.73868e-08
9.91161e-08
6.28615e-07
1.62219e-06
1.6909e-06
7.26472e-07
2.56236e-07
6.46001e-08
0
0
0
0
0
0
0
0
0
0
0
0
0
0
0
0
0
0
0
0
0
0
0
0
0
0
0
0
0
0
0
0
0
0
0
0
0
0
0
0
0
0
0
0
0
0
0
0
0
0
0
0
0
7.60011e-10
3.76728e-09
9.42821e-09
1.71215e-08
2.80015e-08
4.55899e-08
7.78644e-08
1.40634e-07
2.51447e-07
4.12879e-07
6.04268e-07
7.96701e-07
9.70085e-07
1.11487e-06
1.21047e-06
1.14552e-06
9.57488e-07
7.12015e-07
4.77432e-07
2.92929e-07
1.66383e-07
8.98061e-08
4.57612e-08
2.11381e-08
8.47998e-09
2.77623e-09
1.00467e-09
5.4458e-10
2.05542e-10
6.12463e-11
1.89761e-11
5.20351e-12
3.48527e-12
4.07393e-12
2.96069e-11
5.6778e-11
5.12131e-11
1.45368e-09
1.0526e-08
6.84775e-08
3.51176e-07
1.19446e-06
1.84542e-06
1.15243e-06
4.83402e-07
1.51695e-07
3.50409e-08
0
0
0
0
0
0
0
0
0
0
0
0
0
0
0
0
0
0
0
0
0
0
0
0
0
0
0
0
0
0
0
0
0
0
0
0
0
0
0
0
0
0
0
0
0
0
0
0
0
0
0
0
0
0
9.90116e-10
2.79642e-09
7.61824e-09
1.77585e-08
3.58672e-08
6.95999e-08
1.27315e-07
2.19605e-07
3.52536e-07
5.16796e-07
6.95774e-07
8.73732e-07
1.04081e-06
1.15615e-06
1.16332e-06
1.04018e-06
8.35677e-07
6.16022e-07
4.20083e-07
2.6344e-07
1.52247e-07
8.05235e-08
3.771e-08
1.50328e-08
5.11406e-09
1.92853e-09
6.58837e-10
2.21751e-10
6.45664e-11
1.60209e-11
5.82099e-12
3.02921e-12
5.79754e-12
3.49093e-11
1.37472e-12
6.14281e-10
6.0137e-09
4.07887e-08
2.71898e-07
1.00715e-06
1.84636e-06
1.60508e-06
6.93082e-07
2.40325e-07
7.01716e-08
1.13513e-10
0
0
0
0
0
0
0
0
0
0
0
0
0
0
0
0
0
0
0
0
0
0
0
0
0
0
0
0
0
0
0
0
0
0
0
0
0
0
0
0
0
0
0
0
0
0
0
0
0
0
0
0
0
0
4.17295e-14
1.31315e-09
4.31397e-09
1.22503e-08
2.86475e-08
5.70393e-08
1.05632e-07
1.80917e-07
2.94449e-07
4.43055e-07
7.10623e-07
1.03088e-06
1.35077e-06
1.52178e-06
1.53936e-06
1.3891e-06
1.13726e-06
8.54768e-07
5.92559e-07
3.76001e-07
2.16672e-07
1.1179e-07
4.98663e-08
1.84474e-08
5.90483e-09
2.1117e-09
6.27597e-10
2.04466e-10
5.79189e-11
1.17547e-11
1.60423e-11
5.13195e-14
1.18944e-11
2.41627e-11
2.46585e-10
3.62375e-09
2.83637e-08
1.52658e-07
8.16153e-07
1.8852e-06
1.80598e-06
9.94254e-07
4.11152e-07
1.16574e-07
1.35606e-08
0
0
0
0
0
0
0
0
0
0
0
0
0
0
0
0
0
0
0
0
0
0
0
0
0
0
0
0
0
0
0
0
0
0
0
0
0
0
0
0
0
0
0
0
0
0
0
0
0
0
0
0
0
0
0
1.48091e-12
4.6029e-10
2.03085e-09
6.13331e-09
1.42043e-08
2.9773e-08
5.8892e-08
1.14928e-07
2.24905e-07
5.05434e-07
9.26209e-07
1.36584e-06
1.81682e-06
2.07939e-06
2.08116e-06
1.87631e-06
1.53489e-06
1.14485e-06
7.81186e-07
4.84403e-07
2.69415e-07
1.31706e-07
5.43285e-08
1.80685e-08
5.21499e-09
1.80086e-09
5.34576e-10
1.82738e-10
4.89867e-11
6.51155e-12
2.93603e-11
3.19878e-11
1.53577e-10
4.18746e-10
2.31541e-09
1.99608e-08
1.21211e-07
4.73758e-07
1.46068e-06
1.85315e-06
1.25356e-06
5.64376e-07
1.91253e-07
5.84958e-08
0
0
0
0
0
0
0
0
0
0
0
0
0
0
0
0
0
0
0
0
0
0
0
0
0
0
0
0
0
0
0
0
0
0
0
0
0
0
0
0
0
0
0
0
0
0
0
0
0
0
0
0
0
0
0
0
0
6.87015e-11
7.52554e-11
1.85804e-10
4.59736e-10
1.55461e-09
6.87295e-09
3.34128e-08
1.6856e-07
5.31041e-07
1.05885e-06
1.59833e-06
2.16342e-06
2.61011e-06
2.63839e-06
2.38629e-06
1.94366e-06
1.42968e-06
9.51391e-07
5.69957e-07
3.03175e-07
1.39652e-07
5.31185e-08
1.57036e-08
3.91229e-09
1.33976e-09
4.48228e-10
1.61057e-10
3.55931e-12
1.46713e-10
4.94644e-10
1.62546e-09
3.06643e-09
4.2264e-09
1.3565e-08
9.23488e-08
3.98503e-07
1.06308e-06
1.55928e-06
1.29222e-06
6.64208e-07
2.85651e-07
9.48045e-08
3.0545e-08
0
0
0
0
0
0
0
0
0
0
0
0
0
0
0
0
0
0
0
0
0
0
0
0
0
0
0
0
0
0
0
0
0
0
0
0
0
0
0
0
0
0
0
0
0
0
0
0
0
0
0
0
0
0
0
0
0
0
3.98277e-14
1.35138e-12
2.38286e-12
1.03039e-11
1.64997e-11
2.9559e-09
8.51182e-08
4.41074e-07
9.99792e-07
1.595e-06
2.23038e-06
2.83444e-06
2.9927e-06
2.78536e-06
2.29127e-06
1.6743e-06
1.08971e-06
6.32962e-07
3.23802e-07
1.42225e-07
5.07855e-08
1.34618e-08
2.6634e-09
7.11004e-10
2.25205e-10
2.97366e-12
2.53961e-10
1.55152e-09
5.84068e-09
1.60639e-08
2.48093e-08
2.59182e-08
6.25938e-08
2.95972e-07
8.47298e-07
1.42471e-06
1.17944e-06
6.64027e-07
3.50009e-07
1.28e-07
4.61558e-08
0
0
0
0
0
0
0
0
0
0
0
0
0
0
0
0
0
0
0
0
0
0
0
0
0
0
0
0
0
0
0
0
0
0
0
0
0
0
0
0
0
0
0
0
0
0
0
0
0
0
0
0
0
0
0
0
0
0
0
1.97494e-12
3.24635e-13
5.39423e-13
2.38786e-11
3.5144e-10
3.4878e-09
3.89131e-08
3.05181e-07
8.33461e-07
1.41848e-06
2.10979e-06
2.83115e-06
3.14449e-06
3.03633e-06
2.55195e-06
1.87076e-06
1.20502e-06
6.87192e-07
3.44667e-07
1.48789e-07
5.24521e-08
1.35255e-08
2.14323e-09
1.98721e-10
8.70733e-15
4.76553e-10
3.61909e-09
1.39708e-08
4.31198e-08
9.75308e-08
1.37609e-07
1.18262e-07
2.30789e-07
6.80923e-07
1.13732e-06
1.21459e-06
6.98602e-07
3.62427e-07
1.5602e-07
5.17418e-08
4.4018e-11
0
0
0
0
0
0
0
0
0
0
0
0
0
0
0
0
0
0
0
0
0
0
0
0
0
0
0
0
0
0
0
0
0
0
0
0
0
0
0
0
0
0
0
0
0
0
0
0
0
0
0
0
0
0
0
0
0
0
0
0
2.71006e-12
1.75653e-12
9.46022e-12
3.29748e-10
3.54809e-09
2.26752e-08
1.76962e-07
6.24783e-07
1.16998e-06
1.88958e-06
2.66955e-06
3.12355e-06
3.14494e-06
2.72595e-06
2.0325e-06
1.31981e-06
7.54978e-07
3.83328e-07
1.70705e-07
6.44e-08
1.93226e-08
4.37917e-09
1.14896e-09
2.03073e-09
8.16827e-09
2.8104e-08
8.23502e-08
2.07583e-07
3.75047e-07
5.41002e-07
3.90576e-07
5.99857e-07
1.04821e-06
1.05424e-06
7.79069e-07
4.10763e-07
1.65304e-07
5.97818e-08
1.75724e-10
0
0
0
0
0
0
0
0
0
0
0
0
0
0
0
0
0
0
0
0
0
0
0
0
0
0
0
0
0
0
0
0
0
0
0
0
0
0
0
0
0
0
0
0
0
0
0
0
0
0
0
0
0
0
0
0
0
0
0
0
0
0
1.10538e-11
1.18719e-11
1.06757e-10
2.29211e-09
1.81102e-08
8.58462e-08
4.13854e-07
9.38409e-07
1.607e-06
2.40153e-06
2.97134e-06
3.12998e-06
2.82305e-06
2.18023e-06
1.4557e-06
8.60646e-07
4.59512e-07
2.22887e-07
9.79796e-08
3.90331e-08
1.65555e-08
1.2146e-08
1.97128e-08
4.95327e-08
1.31114e-07
3.0866e-07
6.76187e-07
8.98108e-07
1.02289e-06
8.44762e-07
9.36905e-07
1.02392e-06
6.97171e-07
4.23386e-07
1.85951e-07
7.64481e-08
1.29218e-08
0
0
0
0
0
0
0
0
0
0
0
0
0
0
0
0
0
0
0
0
0
0
0
0
0
0
0
0
0
0
0
0
0
0
0
0
0
0
0
0
0
0
0
0
0
0
0
0
0
0
0
0
0
0
0
0
0
0
0
0
0
0
0
0
0
5.31478e-11
8.21235e-10
1.01196e-08
5.1473e-08
2.21396e-07
6.77685e-07
1.2523e-06
2.03239e-06
2.7027e-06
2.99852e-06
2.84833e-06
2.31126e-06
1.62607e-06
1.02195e-06
5.94581e-07
3.29285e-07
1.78096e-07
9.30368e-08