/*--------------------------------*- C++ -*----------------------------------*\
  =========                 |
  \\      /  F ield         | OpenFOAM: The Open Source CFD Toolbox
   \\    /   O peration     | Website:  https://openfoam.org
    \\  /    A nd           | Version:  6
     \\/     M anipulation  |
\*---------------------------------------------------------------------------*/
FoamFile
{
    version     2.0;
    format      ascii;
    class       volScalarField;
    location    "0.005";
    object      CH2O;
}
// * * * * * * * * * * * * * * * * * * * * * * * * * * * * * * * * * * * * * //

dimensions      [0 0 0 0 0 0 0];

internalField   nonuniform List<scalar> 
8000
(
3.15774e-17
9.8476e-13
6.47972e-12
6.90516e-11
1.06218e-09
1.63014e-08
1.46953e-07
5.3188e-07
9.82052e-07
1.40487e-06
1.81355e-06
2.20141e-06
2.57728e-06
2.84581e-06
2.88116e-06
2.8699e-06
3.14163e-06
3.86391e-06
5.02899e-06
8.05947e-06
1.7844e-05
3.95922e-05
5.51148e-05
6.48559e-05
9.01973e-05
0.000166135
0.00023221
0.00021658
0.000161478
0.000116167
0.000100619
0.000117728
0.000166236
0.000242747
0.0003221
0.000384211
0.00044484
0.000509936
0.000551103
0.000586884
0.000615594
0.000608849
0.000543222
0.00043692
0.000251737
4.3986e-05
2.32778e-05
3.02355e-05
3.59967e-05
1.32101e-05
1.79797e-06
1.67064e-07
2.63154e-09
0
0
0
0
0
0
0
0
0
0
0
0
0
0
0
0
0
0
0
0
0
0
0
0
0
0
0
0
0
0
0
0
0
0
0
0
0
0
0
0
0
0
0
0
0
0
0
5.08796e-16
9.19281e-12
2.55155e-11
2.36942e-10
2.51854e-09
3.52204e-08
2.9948e-07
9.27102e-07
1.61833e-06
2.28234e-06
2.83176e-06
3.22936e-06
3.59677e-06
3.96516e-06
3.91716e-06
3.64965e-06
3.76702e-06
4.43806e-06
5.54765e-06
8.5866e-06
1.88959e-05
4.69667e-05
0.000245573
7.74264e-05
0.000108277
0.000218686
0.000306189
0.000253413
0.000172233
0.000114143
9.64058e-05
0.000114442
0.000165702
0.000246275
0.000329398
0.000403649
0.000449963
0.00052985
0.000554046
0.000610643
0.000637169
0.00061151
0.000545164
0.000439069
0.000257392
5.14298e-05
2.73498e-05
3.12133e-05
6.0838e-05
2.82855e-05
5.03522e-06
2.74341e-07
9.48496e-10
0
0
0
0
0
0
0
0
0
0
0
0
0
0
0
0
0
0
0
0
0
0
0
0
0
0
0
0
0
0
0
0
0
0
0
0
0
0
0
0
0
0
0
0
0
0
0
3.66092e-12
8.02051e-07
3.513e-12
1.87533e-06
1.14745e-08
1.13214e-07
6.45737e-07
1.68128e-06
1.19301e-05
4.15072e-06
4.86933e-06
5.26524e-06
5.48421e-06
6.20696e-06
3.13987e-05
2.44267e-05
4.91653e-06
5.89399e-06
7.18612e-06
9.88162e-06
1.754e-05
3.60379e-05
5.81371e-05
6.35057e-05
8.05325e-05
0.000183272
0.000927669
0.000284737
0.000152773
9.61911e-05
8.52686e-05
0.000109086
0.000166985
0.000255116
0.000345799
0.000419891
0.000475445
0.00053829
0.000578452
0.000617196
0.000643831
0.000636492
0.000567345
0.000457328
0.000268391
6.18442e-05
0.000359078
2.89843e-05
9.80104e-05
1.61196e-05
2.28718e-06
1.56715e-07
6.99713e-14
0
0
0
0
0
0
0
0
0
0
0
0
0
0
0
0
0
0
0
0
0
0
0
0
0
0
0
0
0
0
0
0
0
0
0
0
0
0
0
0
0
0
0
0
0
0
0
5.23521e-16
1.49932e-10
4.7268e-09
4.16078e-08
1.69076e-07
4.02252e-07
1.03542e-06
2.27401e-06
4.19918e-06
3.06985e-05
1.05484e-05
1.11975e-05
1.09646e-05
3.76544e-05
5.74362e-06
5.37309e-06
6.20642e-06
1.00503e-05
5.12712e-05
1.35515e-05
1.94436e-05
0.000106197
5.11288e-05
5.77627e-05
6.49003e-05
8.83479e-05
0.000132694
0.000135215
0.000104432
0.000232557
7.99124e-05
0.000110409
0.000174964
0.000269666
0.000370789
0.000444476
0.000506092
0.000547427
0.00058688
0.000645647
0.000652213
0.000644952
0.000574179
0.000463544
0.000279007
5.82648e-05
2.4614e-05
1.84849e-05
1.69635e-05
6.37183e-06
7.61616e-07
7.07368e-08
2.1415e-20
0
0
0
0
0
0
0
0
0
0
0
0
0
0
0
0
0
0
0
0
0
0
0
0
0
0
0
0
0
0
0
0
0
0
0
0
0
0
0
0
0
0
0
0
0
0
0
7.43202e-14
1.76389e-10
3.55866e-06
3.54439e-07
6.87136e-06
1.07527e-06
1.49717e-06
7.47282e-06
4.7242e-06
3.96839e-05
0.000186963
0.000151555
9.30194e-05
9.42081e-06
6.56211e-06
3.23941e-05
9.01373e-06
6.25343e-05
1.84855e-05
2.02858e-05
8.61258e-05
0.000110129
4.70776e-05
0.000262355
0.000306135
6.82719e-05
8.87677e-05
0.000278092
0.000162786
9.17987e-05
8.32648e-05
0.000121052
0.000190841
0.000288762
0.000409178
0.00101993
0.000538237
0.000576206
0.000636476
0.000656736
0.00066149
0.000653886
0.000604169
0.000485558
0.000290859
5.82314e-05
2.10149e-05
1.31634e-05
8.18389e-06
2.57281e-06
3.44255e-07
2.90568e-08
0
0
0
0
0
0
0
0
0
0
0
0
0
0
0
0
0
0
0
0
0
0
0
0
0
0
0
0
0
0
0
0
0
0
0
0
0
0
0
0
0
0
0
0
0
0
0
0
2.70047e-12
3.035e-11
1.50889e-07
4.52548e-06
2.0722e-06
6.37666e-06
1.88414e-06
2.54287e-06
3.9244e-06
6.21095e-06
1.07726e-05
1.10921e-05
8.68262e-06
6.66685e-06
6.51307e-06
8.53459e-06
1.46045e-05
8.91005e-05
3.3478e-05
0.000124014
3.47835e-05
0.000132968
4.92766e-05
0.000277113
0.000304312
7.07372e-05
7.18705e-05
0.000281847
0.000211696
6.64715e-05
7.75779e-05
0.000139365
0.000428686
0.000308643
0.000417591
0.00050454
0.000548134
0.000607445
0.000646298
0.000668379
0.000670635
0.000662214
0.00116021
0.000493338
0.0003045
6.65959e-05
2.31394e-05
1.29121e-05
5.82479e-06
1.83828e-06
4.5998e-07
1.05704e-07
0
0
0
0
0
0
0
0
0
0
0
0
0
0
0
0
0
0
0
0
0
0
0
0
0
0
0
0
0
0
0
0
0
0
0
0
0
0
0
0
0
0
0
0
0
0
0
0
1.88336e-12
4.51091e-10
3.66994e-08
3.15982e-07
8.68191e-07
1.3177e-06
7.04106e-06
3.01479e-06
3.96325e-06
4.75792e-06
2.29145e-05
2.84059e-05
2.64111e-05
6.48892e-06
8.10766e-06
1.26193e-05
1.96147e-05
3.36082e-05
0.000222199
4.88229e-05
0.000186237
4.68959e-05
0.000212783
6.90328e-05
0.000132404
8.58766e-05
7.01305e-05
6.1616e-05
5.18115e-05
5.74255e-05
8.99137e-05
0.000154701
0.000238894
0.000331758
0.000430033
0.000528581
0.000575673
0.000635112
0.000652969
0.00120965
0.000678485
0.000669481
0.000635121
0.0004976
0.000320559
8.37115e-05
2.87887e-05
1.8505e-05
8.55693e-06
2.68698e-06
9.26822e-07
1.88919e-07
0
0
0
0
0
0
0
0
0
0
0
0
0
0
0
0
0
0
0
0
0
0
0
0
0
0
0
0
0
0
0
0
0
0
0
0
0
0
0
0
0
0
0
0
0
0
0
0
9.50114e-07
1.4714e-06
4.19114e-08
4.01498e-07
9.12761e-07
6.02111e-06
2.95254e-06
4.80058e-06
3.03758e-05
5.87292e-06
5.68212e-06
5.75528e-06
6.36657e-06
9.43353e-06
5.15261e-05
7.16871e-05
0.000119614
0.000205927
8.12796e-05
0.000282034
6.16129e-05
6.04763e-05
0.000245062
7.37712e-05
8.12551e-05
0.000303651
6.44149e-05
5.27574e-05
5.01929e-05
7.72894e-05
0.000140629
0.000204435
0.000280942
0.00036038
0.000463088
0.00054218
0.000608531
0.000642709
0.00065596
0.000678193
0.000683901
0.000676831
0.000636517
0.000515904
0.000339441
0.000106029
3.63855e-05
6.95258e-05
1.18033e-05
3.00841e-07
2.58718e-07
1.14481e-07
0
0
0
0
0
0
0
0
0
0
0
0
0
0
0
0
0
0
0
0
0
0
0
0
0
0
0
0
0
0
0
0
0
0
0
0
0
0
0
0
0
0
0
0
0
0
0
0
9.74433e-07
2.181e-06
1.89967e-07
1.271e-06
4.89402e-06
2.61921e-06
1.17583e-05
7.59682e-06
7.16184e-05
9.84943e-06
3.71087e-05
3.39837e-05
9.26526e-06
1.29088e-05
1.73349e-05
8.651e-05
0.000136712
0.000259442
0.000132789
8.99805e-05
7.66248e-05
0.000256314
7.36853e-05
0.00029528
0.000295235
7.65838e-05
6.3391e-05
5.32023e-05
6.44494e-05
0.000127408
0.000367496
0.00043393
0.000328516
0.000407459
0.000514806
0.000574985
0.000638906
0.000647351
0.000655232
0.000675052
0.00122291
0.00121875
0.000638506
0.000516381
0.000712328
0.000198557
4.43077e-05
2.24576e-05
9.78231e-06
2.98152e-06
7.71321e-07
8.22103e-08
0
0
0
0
0
0
0
0
0
0
0
0
0
0
0
0
0
0
0
0
0
0
0
0
0
0
0
0
0
0
0
0
0
0
0
0
0
0
0
0
0
0
0
0
0
0
0
0
4.8213e-13
1.96817e-06
3.32203e-06
4.68108e-06
2.32518e-06
1.01174e-05
4.98982e-06
7.30929e-06
1.12126e-05
4.66518e-05
1.26702e-05
1.52509e-05
5.84416e-05
7.98395e-05
0.000141694
0.000114441
3.78934e-05
7.10352e-05
0.000116857
0.000104511
9.34493e-05
0.000101501
8.95681e-05
8.99695e-05
8.61517e-05
7.49866e-05
6.44273e-05
5.8561e-05
7.48756e-05
0.000307355
0.000221358
0.000303101
0.000709621
0.000434898
0.000534823
0.00113965
0.00064869
0.000649172
0.000651002
0.000667009
0.00121457
0.000678548
0.000637878
0.000514112
0.000317699
9.61601e-05
0.000336714
1.9476e-05
8.73238e-06
2.76533e-06
9.99181e-07
8.28777e-08
0
0
0
0
0
0
0
0
0
0
0
0
0
0
0
0
0
0
0
0
0
0
0
0
0
0
0
0
0
0
0
0
0
0
0
0
0
0
0
0
0
0
0
0
0
0
0
0
1.19616e-06
3.64346e-07
1.35081e-06
2.56512e-06
4.00924e-06
2.05791e-05
3.17974e-05
4.55327e-05
1.84402e-05
2.09262e-05
2.4269e-05
8.08562e-05
3.09386e-05
0.000105807
3.58006e-05
3.74133e-05
4.45961e-05
0.000330354
0.000205895
0.00012973
0.000104912
0.000228664
0.0001011
0.000196505
0.000227843
7.97349e-05
7.47531e-05
7.64103e-05
0.00011029
0.000177912
0.000249977
0.000330054
0.000411064
0.000487857
0.00056133
0.00114076
0.000653195
0.00116355
0.000643645
0.000655471
0.000668763
0.000674096
0.00063702
0.000494331
0.000303385
8.90244e-05
3.52856e-05
1.6741e-05
6.94762e-06
2.81229e-07
5.8863e-07
8.3755e-08
0
0
0
0
0
0
0
0
0
0
0
0
0
0
0
0
0
0
0
0
0
0
0
0
0
0
0
0
0
0
0
0
0
0
0
0
0
0
0
0
0
0
0
0
0
0
0
0
3.34084e-08
2.33396e-06
4.37625e-06
2.4189e-05
1.03485e-05
4.33134e-05
5.63922e-05
2.6921e-05
4.06642e-05
4.11433e-05
4.20699e-05
4.37058e-05
5.00375e-05
0.00018282
4.86839e-05
4.986e-05
5.61825e-05
0.000329975
0.000220513
0.000199987
0.00010627
0.000105192
0.000113575
0.000133542
0.000102679
8.75713e-05
9.56502e-05
0.000210388
0.000169503
0.000414443
0.000306439
0.000381815
0.000455015
0.00103934
0.000562587
0.000624375
0.00116013
0.000640212
0.000633124
0.000642314
0.000655339
0.000671317
0.00116085
0.000488051
0.000285937
0.00014455
0.000249011
5.01261e-05
5.14916e-06
2.23679e-06
1.78325e-07
9.80322e-08
2.27412e-08
0
0
0
0
0
0
0
0
0
0
0
0
0
0
0
0
0
0
0
0
0
0
0
0
0
0
0
0
0
0
0
0
0
0
0
0
0
0
0
0
0
0
0
0
0
0
0
1.58742e-06
9.40886e-06
1.84502e-05
6.60772e-05
9.42443e-05
0.00011731
4.16522e-05
0.000205023
0.000104294
0.000262662
0.000211625
0.000199473
6.05579e-05
0.00020349
5.84156e-05
6.18921e-05
0.00029895
8.68397e-05
0.000109527
0.000185925
0.000123135
0.000114701
0.000131968
0.000203668
0.000116067
0.000107322
0.000119899
0.000278365
0.000207625
0.000294567
0.000355599
0.000426618
0.000510774
0.000529968
0.00055619
0.000610291
0.00113746
0.00113723
0.000620283
0.0006286
0.000642467
0.0011919
0.00115327
0.000479047
0.000264327
0.000159013
2.96697e-05
4.42953e-05
3.72543e-06
1.47269e-06
2.75738e-07
9.96041e-08
7.13037e-08
3.13979e-08
0
0
0
0
0
0
0
0
0
0
0
0
0
0
0
0
0
0
0
0
0
0
0
0
0
0
0
0
0
0
0
0
0
0
0
0
0
0
0
0
0
0
0
0
0
0
8.43509e-06
0.000133043
0.000147529
0.000166676
5.47711e-05
0.000275797
0.000271767
7.05478e-05
9.51982e-05
9.67371e-05
9.43997e-05
8.4786e-05
7.80622e-05
7.22596e-05
6.85739e-05
7.02144e-05
8.28211e-05
0.000241077
0.000116083
0.000152554
0.000282174
0.000141498
0.000142645
0.000152637
0.000233098
0.00015166
0.000296031
0.000195553
0.000265024
0.000362823
0.000425081
0.000488238
0.00105297
0.000545676
0.000544089
0.000569899
0.000601624
0.00110464
0.000604838
0.000614855
0.000629221
0.000654401
0.000598203
0.000452102
0.00023942
4.88856e-05
2.43814e-05
8.66468e-06
2.70472e-06
9.73613e-07
1.98767e-07
1.02e-07
8.9631e-08
7.59764e-08
2.94195e-08
0
0
0
0
0
0
0
0
0
0
0
0
0
0
0
0
0
0
0
0
0
0
0
0
0
0
0
0
0
0
0
0
0
0
0
0
0
0
0
0
0
0
0
0
0
0.000141614
0.000379697
0.000311929
0.000211136
9.43055e-05
0.000161023
9.27428e-05
0.00020124
0.00018124
0.000178228
0.000345506
0.000182614
0.000240098
0.000118329
0.000188586
8.5525e-05
8.37389e-05
9.32273e-05
0.000109603
0.00016065
0.000274276
0.00020063
0.000148977
0.000165688
0.000185193
0.000446484
0.000211958
0.000246827
0.000323623
0.000947675
0.000975383
0.00103016
0.00106142
0.00105224
0.00104452
0.00104803
0.000517594
0.000518763
0.0010836
0.000572075
0.00112682
0.000644475
0.00112204
0.000924974
0.000210999
0.000265764
1.95744e-05
7.17202e-06
2.31078e-06
8.68363e-07
1.74172e-07
1.01179e-07
9.33554e-08
8.56224e-08
6.62505e-08
0
0
0
0
0
0
0
0
0
0
0
0
0
0
0
0
0
0
0
0
0
0
0
0
0
0
0
0
0
0
0
0
0
0
0
0
0
0
0
0
0
0
0
0
0
4.28783e-05
0.000118804
0.000169215
0.000722511
0.00023959
0.000191292
0.000105174
0.000129439
0.000243534
0.000320189
0.000608206
0.000718604
0.000292399
0.000188365
0.000123886
8.76873e-05
7.86431e-05
8.435e-05
0.000107258
0.000162819
0.000133882
0.000134365
0.00016064
0.000204966
0.000469491
0.000260271
0.000274477
0.000313629
0.000362764
0.000437529
0.000959593
0.000503567
0.000507173
0.00049172
0.000480589
0.000998902
0.000989825
0.000468038
0.00103821
0.00107358
0.000541553
0.00114446
0.00108985
0.000400777
0.000175619
3.32251e-05
1.58714e-05
5.87204e-06
1.97912e-06
8.8218e-07
1.52196e-07
9.26592e-08
8.70712e-08
8.73401e-08
1.25903e-07
0
0
0
0
0
0
0
0
0
0
0
0
0
0
0
0
0
0
0
0
0
0
0
0
0
0
0
0
0
0
0
0
0
0
0
0
0
0
0
0
0
0
0
0
0
2.40062e-06
7.72423e-05
0.000108203
0.000237077
0.000364678
0.00019928
0.000118707
0.000128003
0.000222774
0.000862935
0.000628673
0.00114002
0.000846259
0.000289957
0.000163194
0.000108002
8.63895e-05
8.5218e-05
0.000115496
0.000118954
0.000116621
0.000130247
0.000165454
0.000426106
0.000408743
0.000296392
0.000526973
0.000660148
0.000732308
0.00081124
0.000423838
0.000459096
0.000453544
0.000453309
0.000925372
0.000903091
0.000898924
0.000410797
0.000448717
0.00103589
0.00106804
0.000545847
0.00104056
0.000363383
0.000279215
0.000276131
7.31945e-05
4.87298e-06
2.02513e-06
8.08602e-07
1.10006e-07
4.0821e-08
1.94774e-08
3.0777e-08
1.45666e-08
0
0
0
0
0
0
0
0
0
0
0
0
0
0
0
0
0
0
0
0
0
0
0
0
0
0
0
0
0
0
0
0
0
0
0
0
0
0
0
0
0
0
0
0
0
1.26335e-05
5.83141e-05
5.08672e-05
0.00010247
0.000252937
0.000312149
9.56807e-05
9.58387e-05
0.000181393
0.000313474
0.00049618
0.00106386
0.00100394
0.000697532
0.000183115
0.000113845
0.000152931
9.02378e-05
0.000164787
0.000107749
0.000108096
0.000230521
0.000147943
0.000191248
0.000238458
0.00025678
0.000264384
0.000284122
0.000304009
0.000337905
0.000390328
0.000912087
0.000909848
0.000387019
0.000837492
0.000337365
0.000336575
0.00035562
0.000393084
0.000448455
0.00103407
0.00105542
0.000450939
0.000313151
0.000210928
0.000223688
1.08096e-05
4.38966e-06
2.00554e-06
2.46326e-07
3.79383e-08
0
0
0
0
0
0
0
0
0
0
0
0
0
0
0
0
0
0
0
0
0
0
0
0
0
0
0
0
0
0
0
0
0
0
0
0
0
0
0
0
0
0
0
0
0
0
0
0
0
1.49171e-05
4.1114e-05
4.62911e-05
3.33579e-05
6.6997e-05
6.15786e-05
3.93905e-05
4.32235e-05
8.6428e-05
0.000140446
0.000192061
0.000196553
0.000437503
0.000249637
8.65769e-05
7.22051e-05
7.32215e-05
8.6729e-05
0.000102229
0.000102819
0.000106649
0.000115361
0.000126768
0.00015171
0.000185552
0.000359004
0.000221732
0.000379579
0.000244994
0.000291262
0.000691566
0.00074863
0.000346424
0.000788816
0.000689734
0.000274042
0.000278815
0.000314385
0.000829177
0.000396896
0.000973159
0.000457238
0.00038776
0.000650116
0.0001851
2.01349e-05
9.1976e-06
3.57438e-06
1.06793e-06
1.60022e-07
7.74926e-10
0
0
0
0
0
0
0
0
0
0
0
0
0
0
0
0
0
0
0
0
0
0
0
0
0
0
0
0
0
0
0
0
0
0
0
0
0
0
0
0
0
0
0
0
0
0
0
0
0
1.4706e-05
2.5109e-05
5.03354e-05
5.48027e-05
3.33451e-05
2.21188e-05
1.84275e-05
2.00261e-05
3.10966e-05
4.2207e-05
5.04336e-05
5.0431e-05
4.02071e-05
2.9306e-05
2.91927e-05
3.19356e-05
5.50656e-05
8.05278e-05
9.24069e-05
0.000251405
9.9217e-05
0.000262533
0.00010357
0.000116551
0.000137833
0.000162845
0.000173504
0.000179281
0.000204836
0.000445355
0.000540701
0.000270568
0.000614127
0.000617516
0.000245827
0.00023988
0.000522954
0.00028169
0.000662175
0.000363297
0.000406933
0.000924111
0.000330444
0.000224356
0.000204425
1.60253e-05
7.84613e-06
2.80035e-06
7.12238e-07
1.40353e-07
2.15685e-08
0
0
0
0
0
0
0
0
0
0
0
0
0
0
0
0
0
0
0
0
0
0
0
0
0
0
0
0
0
0
0
0
0
0
0
0
0
0
0
0
0
0
0
0
0
0
0
0
0
1.45542e-05
1.66905e-05
2.66511e-05
4.39684e-05
5.60773e-05
4.69327e-05
4.0182e-05
3.4584e-05
3.00431e-05
2.79027e-05
2.3931e-05
2.11544e-05
1.69668e-05
1.32201e-05
1.15111e-05
1.31088e-05
2.59254e-05
0.000128131
6.65785e-05
9.37897e-05
0.000254908
8.47871e-05
9.12763e-05
0.000100108
0.000109644
0.00012099
0.000376534
0.000147646
0.000174056
0.000425583
0.000209658
0.000221777
0.000221483
0.000217662
0.000209877
0.000210529
0.000225643
0.000258943
0.000489576
0.000681049
0.000372042
0.00037461
0.000292387
0.000468441
0.000244837
1.31486e-05
6.58745e-06
2.36096e-06
8.84644e-07
1.71988e-07
8.10856e-08
5.00295e-28
0
0
0
0
0
0
0
0
0
0
0
0
0
0
0
0
0
0
0
0
0
0
0
0
0
0
0
0
0
0
0
0
0
0
0
0
0
0
0
0
0
0
0
0
0
0
0
0
1.464e-05
1.52325e-05
1.68503e-05
2.30148e-05
3.79201e-05
5.06043e-05
5.28264e-05
5.10193e-05
4.54645e-05
3.78205e-05
3.10794e-05
2.44206e-05
1.78405e-05
1.23596e-05
8.96812e-06
8.42776e-06
1.18312e-05
2.10963e-05
3.83555e-05
0.00016188
0.000173147
6.58942e-05
8.02633e-05
0.000337529
0.000331241
0.00010516
0.000113443
0.000123924
0.000147745
0.000464918
0.000490203
0.000177006
0.00017461
0.000172679
0.000473366
0.000177013
0.00020678
0.000362137
0.000387408
0.000304327
0.000339573
0.000326469
0.000252967
0.000142339
2.68748e-05
1.13228e-05
5.36307e-06
2.10889e-06
8.83485e-07
2.71929e-07
9.46007e-08
7.648e-08
0
0
0
0
0
0
0
0
0
0
0
0
0
0
0
0
0
0
0
0
0
0
0
0
0
0
0
0
0
0
0
0
0
0
0
0
0
0
0
0
0
0
0
0
0
0
0
0
1.48811e-05
1.53489e-05
1.54742e-05
1.59973e-05
2.03374e-05
2.86811e-05
3.28643e-05
3.39824e-05
3.17176e-05
2.8025e-05
2.43421e-05
2.05947e-05
1.6464e-05
1.16277e-05
7.722e-06
6.17654e-06
7.21524e-06
1.23393e-05
2.11441e-05
3.37756e-05
4.48548e-05
5.5296e-05
7.01652e-05
8.54771e-05
9.05158e-05
9.74321e-05
0.000333696
0.000108486
0.000122027
0.000132626
0.000138588
0.000498041
0.000505022
0.000147247
0.000150663
0.000159849
0.000182436
0.000220806
0.000252487
0.000284117
0.000308266
0.000297869
0.000208536
0.000104524
2.0826e-05
9.55999e-06
4.35486e-06
2.06636e-06
7.78341e-07
1.68844e-07
9.80302e-08
9.10595e-08
0
0
0
0
0
0
0
0
0
0
0
0
0
0
0
0
0
0
0
0
0
0
0
0
0
0
0
0
0
0
0
0
0
0
0
0
0
0
0
0
0
0
0
0
0
0
0
0
1.52411e-05
1.57979e-05
1.55871e-05
1.45839e-05
1.38624e-05
1.41336e-05
1.41669e-05
1.37483e-05
1.48309e-05
1.45559e-05
1.4982e-05
1.48232e-05
1.33384e-05
1.03929e-05
6.91647e-06
4.77133e-06
4.97474e-06
7.31867e-06
1.34648e-05
2.32316e-05
0.000124628
5.26004e-05
6.715e-05
7.72671e-05
8.42605e-05
9.14306e-05
9.44941e-05
9.5485e-05
0.000102135
0.000107423
0.000113771
0.000412215
0.00012442
0.000125378
0.00013114
0.00014566
0.000260052
0.000191874
0.000236399
0.000265289
0.000285998
0.000583062
0.00017099
7.10191e-05
1.69741e-05
8.1003e-06
3.60085e-06
1.5621e-06
3.66573e-07
1.28361e-07
9.15828e-08
4.43787e-08
0
0
0
0
0
0
0
0
0
0
0
0
0
0
0
0
0
0
0
0
0
0
0
0
0
0
0
0
0
0
0
0
0
0
0
0
0
0
0
0
0
0
0
0
0
0
0
0
1.56942e-05
1.612e-05
1.53527e-05
1.37805e-05
1.08621e-05
7.62425e-06
5.88862e-06
5.49668e-06
6.27913e-06
7.57724e-06
8.92975e-06
1.0083e-05
1.02043e-05
8.83168e-06
6.38064e-06
4.10746e-06
3.58762e-06
5.28109e-06
9.97732e-06
1.68187e-05
2.87637e-05
4.69226e-05
6.78392e-05
7.27665e-05
7.70648e-05
0.000264093
0.000273828
8.34691e-05
8.41954e-05
8.72503e-05
9.33721e-05
0.000100373
0.000104138
0.000108082
0.000116303
0.000132837
0.000153305
0.000177128
0.000200547
0.000247088
0.000262324
0.00023676
0.000134917
0.000220181
1.43716e-05
6.96607e-06
2.93897e-06
1.11159e-06
2.31586e-07
1.11244e-07
6.44578e-08
0
0
0
0
0
0
0
0
0
0
0
0
0
0
0
0
0
0
0
0
0
0
0
0
0
0
0
0
0
0
0
0
0
0
0
0
0
0
0
0
0
0
0
0
0
0
0
0
0
1.61158e-05
1.56253e-05
1.44071e-05
1.16898e-05
8.02726e-06
4.93334e-06
2.58712e-06
2.54788e-06
3.05932e-06
4.1111e-06
5.58609e-06
7.02367e-06
7.81459e-06
7.49075e-06
5.99709e-06
4.04591e-06
2.91112e-06
3.7381e-06
6.9307e-06
1.42402e-05
2.29197e-05
3.82634e-05
0.000156985
6.38171e-05
6.82478e-05
6.99591e-05
7.14831e-05
7.10865e-05
6.90352e-05
7.04831e-05
7.57928e-05
8.1864e-05
8.71741e-05
0.000225453
0.000178078
0.000119292
0.000136706
0.000161857
0.000187481
0.000228608
0.000236835
0.000197871
0.000102129
3.17629e-05
1.23833e-05
6.12069e-06
2.55918e-06
8.03735e-07
1.85955e-07
9.82372e-08
5.77492e-08
0
0
0
0
0
0
0
0
0
0
0
0
0
0
0
0
0
0
0
0
0
0
0
0
0
0
0
0
0
0
0
0
0
0
0
0
0
0
0
0
0
0
0
0
0
0
0
0
0
1.59409e-05
1.38779e-05
1.08306e-05
9.47502e-06
5.89869e-06
2.92911e-06
1.70034e-06
1.30422e-06
1.66244e-06
2.56674e-06
3.85661e-06
5.1724e-06
6.12567e-06
6.42417e-06
5.78399e-06
4.30656e-06
2.85396e-06
2.75673e-06
4.90134e-06
1.09808e-05
1.92739e-05
3.04498e-05
4.43826e-05
5.36629e-05
0.000165947
5.79481e-05
5.72055e-05
0.000196654
5.61505e-05
5.61774e-05
6.04967e-05
6.62624e-05
7.25915e-05
8.03694e-05
9.04548e-05
0.000105013
0.000119724
0.000147286
0.00017421
0.000189698
0.000198746
0.000167927
7.20538e-05
0.000250561
1.08815e-05
5.289e-06
2.2578e-06
5.72061e-07
1.50334e-07
7.94491e-08
2.98792e-31
0
0
0
0
0
0
0
0
0
0
0
0
0
0
0
0
0
0
0
0
0
0
0
0
0
0
0
0
0
0
0
0
0
0
0
0
0
0
0
0
0
0
0
0
0
0
0
0
0
1.45666e-05
1.01866e-05
7.87858e-06
5.98169e-06
3.76745e-06
1.77408e-06
9.43085e-07
8.31689e-07
1.1036e-06
1.87048e-06
2.93866e-06
4.04613e-06
4.97183e-06
5.58089e-06
5.55063e-06
4.63747e-06
3.21064e-06
2.4043e-06
3.38427e-06
7.27788e-06
0.000117389
2.32587e-05
3.26709e-05
4.22016e-05
0.000150624
4.55888e-05
4.45093e-05
4.67165e-05
4.40529e-05
4.37647e-05
4.75192e-05
5.25528e-05
5.91085e-05
6.75493e-05
7.68374e-05
8.91961e-05
0.00010431
0.000133607
0.000160869
0.00017386
0.00050416
0.000136889
4.8047e-05
1.97881e-05
9.41178e-06
4.39716e-06
1.91558e-06
3.90054e-07
1.16367e-07
7.30169e-08
0
0
0
0
0
0
0
0
0
0
0
0
0
0
0
0
0
0
0
0
0
0
0
0
0
0
0
0
0
0
0
0
0
0
0
0
0
0
0
0
0
0
0
0
0
0
0
0
0
0
9.9145e-06
4.92301e-06
3.85719e-06
2.70912e-06
1.80459e-06
1.10508e-06
7.03272e-07
6.18379e-07
8.66544e-07
1.50114e-06
2.40857e-06
3.33267e-06
4.16219e-06
4.86878e-06
5.22805e-06
4.86108e-06
3.72075e-06
2.55077e-06
2.53642e-06
4.61111e-06
9.86913e-06
1.66202e-05
2.27338e-05
3.03639e-05
3.44728e-05
3.49689e-05
0.000182002
3.48466e-05
3.33764e-05
3.31917e-05
3.69083e-05
4.09752e-05
4.84109e-05
5.6043e-05
6.34258e-05
7.37933e-05
9.16192e-05
0.000122527
0.000146432
0.000156623
0.00015116
0.000108201
3.18901e-05
1.60124e-05
8.06881e-06
3.64053e-06
1.49451e-06
2.61535e-07
9.81744e-08
4.94948e-08
0
0
0
0
0
0
0
0
0
0
0
0
0
0
0
0
0
0
0
0
0
0
0
0
0
0
0
0
0
0
0
0
0
0
0
0
0
0
0
0
0
0
0
0
0
0
0
0
0
0
3.4941e-06
1.52581e-06
1.23698e-06
1.1354e-06
8.92173e-07
6.23855e-07
4.71431e-07
4.8718e-07
7.35465e-07
1.31769e-06
2.07446e-06
2.84084e-06
3.56237e-06
4.26975e-06
4.83493e-06
4.89529e-06
4.16558e-06
2.97552e-06
2.29582e-06
2.98392e-06
5.36508e-06
1.06643e-05
1.61452e-05
2.12171e-05
2.51918e-05
0.000176224
0.000160784
2.50779e-05
2.41463e-05
2.44028e-05
0.000154781
3.18185e-05
3.96979e-05
4.50585e-05
4.99288e-05
6.14439e-05
8.161e-05
0.000112966
0.000129989
0.000136042
0.000124755
7.78001e-05
2.21452e-05
0.000142411
6.98073e-06
2.94927e-06
1.18895e-06
2.09416e-07
8.13237e-08
2.97652e-08
1.36625e-08
0
0
0
0
0
0
0
0
0
0
0
0
0
0
0
0
0
0
0
0
0
0
0
0
0
0
0
0
0
0
0
0
0
0
0
0
0
0
0
0
0
0
0
0
0
0
0
0
0
7.09793e-07
6.99703e-07
6.34268e-07
5.57996e-07
4.55683e-07
3.6127e-07
3.24341e-07
3.93481e-07
6.42877e-07
1.12307e-06
1.6966e-06
2.32427e-06
2.97073e-06
3.63112e-06
4.28374e-06
4.70137e-06
4.56555e-06
3.78031e-06
2.77097e-06
2.21466e-06
2.46179e-06
4.30205e-06
7.97013e-06
1.17609e-05
1.36563e-05
1.40796e-05
1.37302e-05
1.34179e-05
1.31002e-05
1.36175e-05
1.59437e-05
1.98995e-05
2.23715e-05
2.62172e-05
3.3319e-05
4.55569e-05
6.75444e-05
9.83813e-05
0.000105349
0.000107588
8.94362e-05
3.99378e-05
0.000216227
1.06166e-05
5.14876e-06
1.87142e-06
4.70941e-07
1.16755e-07
4.5106e-09
0
0
0
0
0
0
0
0
0
0
0
0
0
0
0
0
0
0
0
0
0
0
0
0
0
0
0
0
0
0
0
0
0
0
0
0
0
0
0
0
0
0
0
0
0
0
0
0
0
0
0
7.87899e-08
1.39499e-07
1.86826e-07
2.01945e-07
1.94266e-07
1.87316e-07
2.11233e-07
3.08645e-07
5.4301e-07
9.24606e-07
1.36041e-06
1.77866e-06
2.30707e-06
2.88541e-06
3.45854e-06
3.94671e-06
4.14021e-06
3.86319e-06
3.15845e-06
2.33317e-06
1.74027e-06
1.79787e-06
2.52537e-06
3.78888e-06
5.17077e-06
5.79495e-06
5.82108e-06
5.4868e-06
5.15198e-06
5.31275e-06
6.33261e-06
8.18855e-06
1.02156e-05
1.42282e-05
2.0262e-05
3.19971e-05
5.40161e-05
7.57173e-05
7.64343e-05
7.3186e-05
4.70157e-05
0.000236481
0.000138451
7.69006e-06
3.13634e-06
1.02666e-06
2.1943e-07
4.61206e-08
0
0
0
0
0
0
0
0
0
0
0
0
0
0
0
0
0
0
0
0
0
0
0
0
0
0
0
0
0
0
0
0
0
0
0
0
0
0
0
0
0
0
0
0
0
0
0
0
0
0
0
0
1.01635e-08
3.15626e-08
5.33842e-08
7.21069e-08
8.70069e-08
1.07583e-07
1.53281e-07
2.56737e-07
4.59273e-07
7.58837e-07
1.09863e-06
1.43294e-06
1.78535e-06
2.29146e-06
2.78002e-06
3.18956e-06
3.42102e-06
3.35209e-06
2.95766e-06
2.34625e-06
1.70446e-06
1.22979e-06
1.04877e-06
1.1442e-06
1.35687e-06
1.50022e-06
1.49157e-06
1.37304e-06
1.56522e-06
1.92238e-06
2.68144e-06
3.73361e-06
5.68698e-06
8.55505e-06
1.34371e-05
2.40617e-05
4.44678e-05
5.09866e-05
5.00794e-05
3.95745e-05
1.96403e-05
1.22227e-05
9.87506e-06
4.96728e-06
1.80568e-06
5.09245e-07
1.28775e-07
1.29853e-28
0
0
0
0
0
0
0
0
0
0
0
0
0
0
0
0
0
0
0
0
0
0
0
0
0
0
0
0
0
0
0
0
0
0
0
0
0
0
0
0
0
0
0
0
0
0
0
0
0
0
0
0
1.98861e-09
7.90148e-09
1.71731e-08
2.91871e-08
4.75589e-08
7.82246e-08
1.3315e-07
2.34648e-07
4.03409e-07
6.3432e-07
8.96768e-07
1.16935e-06
1.46298e-06
1.82348e-06
2.2812e-06
2.63595e-06
2.84302e-06
2.84073e-06
2.60883e-06
2.19846e-06
1.70485e-06
1.24517e-06
8.72457e-07
6.09208e-07
4.58142e-07
4.24139e-07
4.54085e-07
5.40459e-07
6.83214e-07
9.01682e-07
1.35641e-06
1.99412e-06
3.50099e-06
5.77161e-06
1.00701e-05
1.96175e-05
3.13377e-05
3.21969e-05
2.70114e-05
1.62561e-05
1.00187e-05
1.05721e-05
6.79352e-06
2.99606e-06
1.08468e-06
2.60852e-07
7.89857e-08
0
0
0
0
0
0
0
0
0
0
0
0
0
0
0
0
0
0
0
0
0
0
0
0
0
0
0
0
0
0
0
0
0
0
0
0
0
0
0
0
0
0
0
0
0
0
0
0
0
0
0
0
0
0
2.72722e-09
6.87851e-09
1.75037e-08
3.91346e-08
7.54934e-08
1.38259e-07
2.3442e-07
3.7049e-07
5.44766e-07
7.45356e-07
9.65993e-07
1.22422e-06
1.5442e-06
1.91866e-06
2.26454e-06
2.47508e-06
2.51308e-06
2.39244e-06
2.13496e-06
1.77469e-06
1.37165e-06
9.83973e-07
6.51179e-07
4.03782e-07
2.64332e-07
2.27745e-07
2.34584e-07
3.02547e-07
4.40593e-07
7.58685e-07
1.26053e-06
2.49327e-06
4.42132e-06
8.36896e-06
1.66828e-05
1.84879e-05
1.75494e-05
1.20311e-05
8.19359e-06
9.63658e-06
8.65984e-06
4.51113e-06
1.63423e-06
4.62268e-07
1.36602e-07
7.09642e-09
0
0
0
0
0
0
0
0
0
0
0
0
0
0
0
0
0
0
0
0
0
0
0
0
0
0
0
0
0
0
0
0
0
0
0
0
0
0
0
0
0
0
0
0
0
0
0
0
0
0
0
0
0
0
9.89992e-11
6.35892e-09
1.7377e-08
4.17726e-08
8.45617e-08
1.43935e-07
2.27755e-07
3.31585e-07
4.64466e-07
6.22112e-07
9.24344e-07
1.32801e-06
1.81207e-06
2.24241e-06
2.6095e-06
2.80071e-06
2.80987e-06
2.6519e-06
2.35481e-06
1.95838e-06
1.5138e-06
1.07315e-06
6.80538e-07
3.77928e-07
2.00206e-07
1.28886e-07
1.00253e-07
1.35773e-07
2.57414e-07
5.38037e-07
1.01045e-06
2.03293e-06
3.82395e-06
7.12138e-06
9.65373e-06
9.655e-06
7.56527e-06
7.37042e-06
7.78659e-06
9.14243e-06
5.49496e-06
2.42152e-06
8.6249e-07
2.08931e-07
4.53878e-08
0
0
0
0
0
0
0
0
0
0
0
0
0
0
0
0
0
0
0
0
0
0
0
0
0
0
0
0
0
0
0
0
0
0
0
0
0
0
0
0
0
0
0
0
0
0
0
0
0
0
0
0
0
0
0
8.73032e-11
5.13892e-09
1.64985e-08
3.7458e-08
6.53403e-08
1.04515e-07
1.55554e-07
2.34476e-07
3.64032e-07
6.89377e-07
1.16532e-06
1.69675e-06
2.32472e-06
2.86961e-06
3.23578e-06
3.40174e-06
3.34559e-06
3.09066e-06
2.683e-06
2.17895e-06
1.63755e-06
1.11661e-06
6.65066e-07
3.30646e-07
1.49192e-07
8.4104e-08
5.30876e-08
8.86124e-08
2.14388e-07
4.59275e-07
8.97741e-07
1.53127e-06
2.65112e-06
4.19527e-06
5.23344e-06
4.4012e-06
4.11522e-06
6.61254e-06
6.70149e-06
5.72567e-06
3.17748e-06
1.23094e-06
3.39002e-07
1.15295e-07
0
0
0
0
0
0
0
0
0
0
0
0
0
0
0
0
0
0
0
0
0
0
0
0
0
0
0
0
0
0
0
0
0
0
0
0
0
0
0
0
0
0
0
0
0
0
0
0
0
0
0
0
0
0
0
0
0
2.18927e-09
4.49694e-09
8.77012e-09
1.1731e-08
1.39469e-08
2.5358e-08
7.7199e-08
2.90256e-07
7.68959e-07
1.42401e-06
2.10647e-06
2.87254e-06
3.62667e-06
4.02764e-06
4.16203e-06
4.0179e-06
3.62255e-06
3.05312e-06
2.39917e-06
1.73527e-06
1.12703e-06
6.25988e-07
2.78909e-07
1.08517e-07
6.00292e-08
3.90787e-08
1.0067e-07
2.19888e-07
3.94582e-07
5.69631e-07
1.05995e-06
1.76824e-06
2.39336e-06
2.66079e-06
3.02889e-06
3.98706e-06
6.2568e-06
4.60372e-06
3.21117e-06
1.4892e-06
5.48232e-07
1.78069e-07
7.14071e-08
0
0
0
0
0
0
0
0
0
0
0
0
0
0
0
0
0
0
0
0
0
0
0
0
0
0
0
0
0
0
0
0
0
0
0
0
0
0
0
0
0
0
0
0
0
0
0
0
0
0
0
0
0
0
0
0
0
0
1.79318e-09
2.9656e-09
1.87077e-09
2.99218e-09
3.37949e-09
8.53955e-09
1.65389e-07
7.29945e-07
1.56614e-06
2.42608e-06
3.3516e-06
4.32202e-06
4.81426e-06
4.94796e-06
4.71417e-06
4.16089e-06
3.41195e-06
2.59604e-06
1.81086e-06
1.12461e-06
5.85585e-07
2.31319e-07
7.01665e-08
3.17428e-08
5.10309e-08
1.16546e-07
2.06688e-07
2.86076e-07
4.7679e-07
8.97694e-07
1.32517e-06
1.60226e-06
2.05773e-06
3.23889e-06
3.96353e-06
4.66275e-06
2.81528e-06
1.42758e-06
6.84986e-07
2.09799e-07
9.72309e-08
0
0
0
0
0
0
0
0
0
0
0
0
0
0
0
0
0
0
0
0
0
0
0
0
0
0
0
0
0
0
0
0
0
0
0
0
0
0
0
0
0
0
0
0
0
0
0
0
0
0
0
0
0
0
0
0
0
0
0
5.08598e-10
8.37869e-10
1.98405e-09
2.5661e-09
3.84583e-09
1.07617e-08
8.25648e-08
5.64221e-07
1.50757e-06
2.57522e-06
3.72434e-06
4.85422e-06
5.45592e-06
5.62122e-06
5.32729e-06
4.64156e-06
3.73173e-06
2.77358e-06
1.88862e-06
1.14353e-06
5.77453e-07
2.14586e-07
5.18504e-08
3.26149e-08
6.78768e-08
1.18994e-07
1.90909e-07
3.54562e-07
7.69776e-07
1.3512e-06
1.95309e-06
1.92772e-06
2.85027e-06
3.61101e-06
3.31841e-06
2.97235e-06
1.46732e-06
6.97568e-07
2.4192e-07
1.03003e-07
2.84756e-09
0
0
0
0
0
0
0
0
0
0
0
0
0
0
0
0
0
0
0
0
0
0
0
0
0
0
0
0
0
0
0
0
0
0
0
0
0
0
0
0
0
0
0
0
0
0
0
0
0
0
0
0
0
0
0
0
0
0
0
0
4.31036e-10
9.60245e-10
2.16468e-09
3.77441e-09
1.11977e-08
4.89833e-08
3.39627e-07
1.23383e-06
2.40231e-06
3.80273e-06
5.11244e-06
5.85058e-06
6.08207e-06
5.7845e-06
5.03009e-06
4.01201e-06
2.95654e-06
2.00665e-06
1.22555e-06
6.39667e-07
2.65137e-07
9.08161e-08
5.52073e-08
8.74626e-08
1.81408e-07
4.00569e-07
8.84074e-07
1.7698e-06
2.54989e-06
3.71189e-06
2.83029e-06
3.56224e-06
3.35394e-06
2.45782e-06
1.63736e-06
7.91659e-07
2.64525e-07
1.15996e-07
7.67896e-09
0
0
0
0
0
0
0
0
0
0
0
0
0
0
0
0
0
0
0
0
0
0
0
0
0
0
0
0
0
0
0
0
0
0
0
0
0
0
0
0
0
0
0
0
0
0
0
0
0
0
0
0
0
0
0
0
0
0
0
0
0
0
8.49478e-10
1.42374e-09
2.227e-09
7.82736e-09
3.89065e-08
1.59611e-07
8.35599e-07
2.04742e-06
3.51575e-06
5.00861e-06
5.93473e-06
6.27955e-06
6.05514e-06
5.31118e-06
4.2654e-06
3.17319e-06
2.204e-06
1.41492e-06
8.18997e-07
4.17965e-07
2.19911e-07
1.79754e-07
2.5513e-07
4.90987e-07
1.00112e-06
1.90408e-06
3.53772e-06
3.70834e-06
3.91714e-06
3.32072e-06
3.15843e-06
2.44933e-06
1.42561e-06
8.08282e-07
3.15146e-07
1.46643e-07
4.17781e-08
0
0
0
0
0
0
0
0
0
0
0
0
0
0
0
0
0
0
0
0
0
0
0
0
0
0
0
0
0
0
0
0
0
0
0
0
0
0
0
0
0
0
0
0
0
0
0
0
0
0
0
0
0
0
0
0
0
0
0
0
0
0
0
0
0
1.54493e-09
3.44861e-09
2.21381e-08
9.37926e-08
4.28602e-07
1.47642e-06
2.84936e-06
4.48463e-06
5.68232e-06
6.18817e-06
6.10421e-06
5.47477e-06
4.49263e-06
3.44078e-06
2.51185e-06
1.75871e-06
1.17685e-06