/*--------------------------------*- C++ -*----------------------------------*\
  =========                 |
  \\      /  F ield         | OpenFOAM: The Open Source CFD Toolbox
   \\    /   O peration     | Website:  https://openfoam.org
    \\  /    A nd           | Version:  6
     \\/     M anipulation  |
\*---------------------------------------------------------------------------*/
FoamFile
{
    version     2.0;
    format      ascii;
    class       volScalarField;
    location    "0.005";
    object      CH2OH;
}
// * * * * * * * * * * * * * * * * * * * * * * * * * * * * * * * * * * * * * //

dimensions      [0 0 0 0 0 0 0];

internalField   nonuniform List<scalar> 
8000
(
1.16269e-29
6.21941e-25
4.86054e-24
7.51177e-23
1.90253e-21
5.55676e-20
1.11782e-18
1.17744e-17
6.38666e-17
2.22803e-16
6.12787e-16
1.37244e-15
2.6661e-15
4.12619e-15
4.31954e-15
4.11975e-15
5.83744e-15
1.57879e-14
7.13632e-14
6.5016e-13
1.66513e-11
2.54332e-09
6.6736e-07
5.04433e-07
7.0485e-06
6.87397e-05
0.000160525
0.000164617
0.000115401
7.68849e-05
6.94755e-05
9.65937e-05
0.000185196
0.000344426
0.000585211
0.000771237
0.000929748
0.00093846
0.00103578
0.0010466
0.00114399
0.0011341
0.00102608
0.000926433
0.000398365
1.40392e-05
2.92567e-07
1.00354e-07
1.42076e-08
2.60308e-11
6.49861e-14
1.91078e-15
5.39217e-17
0
0
0
0
0
0
0
0
0
0
0
0
0
0
0
0
0
0
0
0
0
0
0
0
0
0
0
0
0
0
0
0
0
0
0
0
0
0
0
0
0
0
0
0
0
0
0
3.52233e-28
1.39605e-23
3.56981e-23
4.04939e-22
6.2139e-21
1.60203e-19
3.69706e-18
5.21491e-17
3.87954e-16
1.56154e-15
4.08254e-15
7.81419e-15
1.37878e-14
2.49331e-14
2.32984e-14
1.5415e-14
1.715e-14
4.18066e-14
1.44459e-13
9.90467e-13
2.33208e-11
5.92967e-09
4.36259e-05
1.68389e-06
8.36764e-06
9.48311e-05
0.000270549
0.000228566
0.000124331
7.35778e-05
6.47213e-05
9.23805e-05
0.00018454
0.000352879
0.000606142
0.000750805
0.000942783
0.000909066
0.00104123
0.00113431
0.00119573
0.00113756
0.00103011
0.000932086
0.000412056
1.87363e-05
3.45197e-07
7.31225e-08
2.14399e-08
1.40884e-11
3.36096e-16
1.8308e-18
3.56162e-17
0
0
0
0
0
0
0
0
0
0
0
0
0
0
0
0
0
0
0
0
0
0
0
0
0
0
0
0
0
0
0
0
0
0
0
0
0
0
0
0
0
0
0
0
0
0
0
1.97092e-24
5.13513e-14
8.45011e-24
1.67658e-14
5.20481e-20
8.57933e-19
1.68932e-17
3.89727e-16
1.12477e-12
3.18907e-14
9.40776e-14
1.53554e-13
1.86394e-13
3.48262e-13
2.11404e-11
1.32809e-11
8.57474e-14
2.4635e-13
6.50431e-13
2.26264e-12
2.03811e-11
1.38687e-09
3.23194e-07
3.14524e-07
3.72698e-06
8.19832e-05
3.12254e-05
0.000309411
0.000115604
6.03724e-05
5.47482e-05
8.62165e-05
0.000187721
0.000374506
0.000653033
0.000847809
0.00092549
0.000922086
0.00102924
0.00114235
0.00120209
0.00119278
0.00101545
0.000900479
0.000469367
2.5109e-05
1.95957e-06
3.20407e-08
2.99004e-09
9.4631e-12
3.89414e-14
1.45607e-15
2.89125e-20
0
0
0
0
0
0
0
0
0
0
0
0
0
0
0
0
0
0
0
0
0
0
0
0
0
0
0
0
0
0
0
0
0
0
0
0
0
0
0
0
0
0
0
0
0
0
0
3.34289e-28
2.67684e-22
1.85724e-20
3.07714e-19
2.1256e-18
7.51414e-18
6.18431e-17
1.08202e-15
2.43496e-14
1.9267e-11
4.55648e-12
6.02237e-12
5.07598e-12
3.07948e-11
2.07657e-13
1.43471e-13
3.36691e-13
2.99777e-12
8.65631e-11
1.57092e-11
7.25468e-11
4.31088e-09
1.97542e-08
8.84287e-08
8.27558e-07
1.57228e-05
7.03564e-05
8.74355e-05
6.5313e-05
1.60182e-05
4.95476e-05
8.87033e-05
0.000203893
0.000410199
0.000722748
0.000912786
0.000919514
0.00101864
0.00104001
0.00120043
0.00120906
0.00120109
0.00102497
0.000915323
0.000498934
2.40885e-05
2.34297e-07
4.82353e-09
1.37953e-10
8.63143e-13
1.53672e-14
9.1232e-16
6.48383e-22
0
0
0
0
0
0
0
0
0
0
0
0
0
0
0
0
0
0
0
0
0
0
0
0
0
0
0
0
0
0
0
0
0
0
0
0
0
0
0
0
0
0
0
0
0
0
0
5.58084e-26
4.90274e-22
1.32517e-13
8.63852e-18
4.46237e-13
9.52906e-17
2.49453e-16
5.79051e-13
4.47934e-14
3.5117e-11
1.85591e-09
1.53123e-09
3.38101e-10
1.79344e-12
3.70932e-13
2.24294e-11
1.86698e-12
1.7746e-10
1.25114e-10
1.70147e-10
3.27049e-09
6.54553e-09
8.74442e-09
1.97788e-07
1.16937e-06
3.20017e-06
2.00063e-05
0.000284892
0.00011863
5.11176e-05
5.13905e-05
0.000104917
0.000237528
0.000490191
0.000754692
3.38584e-05
0.00098992
0.00101695
0.00118393
0.00120933
0.00121574
0.0012089
0.00112485
0.000893462
0.000531888
2.5814e-05
1.66147e-07
1.07126e-09
1.09326e-11
1.55667e-13
5.2056e-15
1.86486e-16
0
0
0
0
0
0
0
0
0
0
0
0
0
0
0
0
0
0
0
0
0
0
0
0
0
0
0
0
0
0
0
0
0
0
0
0
0
0
0
0
0
0
0
0
0
0
0
0
1.96657e-24
7.82466e-23
1.53161e-18
3.80776e-13
7.25734e-16
6.18481e-13
5.24007e-16
1.7534e-15
1.47695e-14
2.6749e-13
3.96374e-12
4.58436e-12
1.51101e-12
4.11826e-13
3.52553e-13
1.28702e-12
1.36382e-11
2.69547e-09
3.54583e-09
1.4765e-08
2.27421e-09
1.58042e-08
1.18268e-08
2.66061e-07
3.6446e-06
2.25594e-06
8.34314e-06
1.55582e-05
1.54708e-05
2.95155e-05
4.77052e-05
0.000136909
6.12909e-05
0.000544963
0.00082465
0.000904532
0.00100772
0.00111106
0.00119267
0.0012168
0.00122091
0.00121502
1.12386e-05
0.000909376
0.000569629
3.47434e-05
2.00695e-07
6.44055e-10
3.08909e-12
6.45626e-14
1.05195e-15
4.43965e-19
0
0
0
0
0
0
0
0
0
0
0
0
0
0
0
0
0
0
0
0
0
0
0
0
0
0
0
0
0
0
0
0
0
0
0
0
0
0
0
0
0
0
0
0
0
0
0
0
1.81293e-24
1.04262e-21
2.39411e-19
4.99199e-18
3.92648e-17
1.48144e-16
4.33314e-13
4.19809e-15
1.84166e-14
5.99991e-14
1.15137e-11
1.71066e-11
1.51248e-11
3.35859e-13
9.4265e-13
6.35169e-12
5.16567e-11
1.70036e-09
3.15495e-07
2.80322e-08
9.12109e-08
1.6274e-08
1.06104e-07
2.23124e-07
1.79173e-05
4.79086e-06
3.97962e-06
8.1712e-06
9.63473e-06
2.11241e-05
6.28228e-05
0.000165745
0.000350167
0.000606575
0.000853733
0.000884267
0.00100331
0.00116912
0.0011957
1.10654e-05
0.00122348
0.00121872
0.00118797
0.000918371
0.000613685
5.27554e-05
2.88484e-07
9.4855e-10
2.90034e-12
3.72297e-14
5.52827e-18
8.09152e-19
0
0
0
0
0
0
0
0
0
0
0
0
0
0
0
0
0
0
0
0
0
0
0
0
0
0
0
0
0
0
0
0
0
0
0
0
0
0
0
0
0
0
0
0
0
0
0
0
4.32711e-14
2.27294e-14
2.0552e-19
5.49317e-18
3.82238e-17
3.75694e-13
3.47736e-15
6.40578e-14
1.96164e-11
2.26726e-13
1.83585e-13
1.82772e-13
3.01353e-13
1.73569e-12
6.53856e-11
1.7263e-10
1.92838e-09
2.83728e-08
9.14184e-07
8.12501e-07
8.8747e-08
8.87565e-08
3.77327e-07
3.6949e-07
2.46301e-06
5.96492e-06
1.77171e-06
2.85204e-06
8.02621e-06
3.91129e-05
0.00013496
0.00027672
0.000474405
0.000678673
0.000860536
0.000978262
0.00109605
0.00117294
0.00119247
0.00121476
0.00122216
0.00122093
0.00118865
0.000887399
0.000665416
7.64373e-05
3.81493e-07
9.22644e-10
2.89058e-12
4.58073e-17
1.69026e-19
4.71544e-19
0
0
0
0
0
0
0
0
0
0
0
0
0
0
0
0
0
0
0
0
0
0
0
0
0
0
0
0
0
0
0
0
0
0
0
0
0
0
0
0
0
0
0
0
0
0
0
0
6.15205e-14
1.42158e-13
1.86527e-18
8.67001e-17
3.21509e-13
1.59629e-15
1.46389e-12
6.41445e-13
1.47747e-10
2.48061e-12
2.86881e-11
2.18269e-11
1.74324e-12
6.41863e-12
2.43406e-11
5.08585e-10
6.06258e-09
8.36866e-08
1.65523e-05
8.71898e-07
3.55507e-07
2.52931e-06
4.30832e-07
3.02158e-06
6.62534e-06
1.4493e-06
1.5966e-06
3.20964e-06
1.6933e-05
9.56931e-05
0.000114583
0.000149659
0.000586304
0.000773235
0.000844186
0.000985451
0.00115365
0.00117041
0.00118304
0.00120353
1.0963e-05
1.09488e-05
0.00118918
0.000888083
6.30459e-05
4.53003e-05
4.1539e-07
8.9179e-10
1.71584e-12
1.11466e-15
4.14432e-18
2.30167e-19
0
0
0
0
0
0
0
0
0
0
0
0
0
0
0
0
0
0
0
0
0
0
0
0
0
0
0
0
0
0
0
0
0
0
0
0
0
0
0
0
0
0
0
0
0
0
0
0
8.05366e-25
2.10943e-13
1.9111e-13
8.97639e-13
9.08772e-16
9.74911e-13
6.13023e-14
5.58575e-13
5.60381e-12
4.88664e-10
1.8961e-11
4.09759e-11
1.26062e-09
2.2373e-09
7.41926e-09
4.56171e-09
2.30371e-09
7.95285e-08
4.59462e-06
2.00505e-06
1.25491e-06
2.6308e-06
2.25738e-06
3.17946e-06
2.83075e-06
2.62903e-06
4.07243e-06
8.76791e-06
3.10932e-05
2.02979e-05
0.000293614
0.000512111
0.000103843
0.000841502
0.000947241
1.17867e-05
0.00115753
0.00116162
0.00116779
0.00118623
1.10775e-05
0.00121217
0.00118603
0.000883628
0.000604789
5.81995e-05
7.62908e-07
4.3081e-10
9.8481e-13
3.39274e-17
4.6921e-18
2.49728e-19
0
0
0
0
0
0
0
0
0
0
0
0
0
0
0
0
0
0
0
0
0
0
0
0
0
0
0
0
0
0
0
0
0
0
0
0
0
0
0
0
0
0
0
0
0
0
0
0
1.60116e-13
4.05356e-18
1.1132e-16
1.23907e-15
1.24477e-14
2.8751e-12
1.8271e-11
5.56126e-10
1.47838e-10
3.96273e-10
1.00128e-09
1.74052e-08
2.46981e-09
1.34584e-08
2.12932e-09
2.55573e-09
6.47856e-09
2.84695e-07
5.78507e-06
1.93511e-05
3.46064e-06
2.24664e-05
8.1385e-06
3.65692e-05
2.73523e-05
7.60739e-06
1.31497e-05
2.58182e-05
7.55279e-05
0.00018749
0.00035623
0.000575963
0.000764511
0.000836439
0.000951667
1.18442e-05
0.00115232
1.17454e-05
0.00114736
0.00116426
0.00118521
0.00120212
0.00118153
0.000910467
0.00056574
4.6351e-05
1.94465e-07
2.0878e-10
5.74148e-13
1.10359e-18
3.01331e-18
2.64594e-19
0
0
0
0
0
0
0
0
0
0
0
0
0
0
0
0
0
0
0
0
0
0
0
0
0
0
0
0
0
0
0
0
0
0
0
0
0
0
0
0
0
0
0
0
0
0
0
0
7.90043e-20
6.83668e-16
2.14019e-14
3.68922e-12
5.62695e-12
4.37032e-10
1.42103e-09
1.40023e-09
9.77462e-08
8.52334e-08
8.50709e-08
8.12743e-08
9.50048e-08
2.27635e-07
3.49907e-08
3.2039e-08
5.52953e-08
6.77698e-07
6.51808e-06
1.32281e-05
7.74605e-06
1.14936e-05
2.27436e-05
4.07103e-05
2.17099e-05
2.00042e-05
3.71565e-05
3.65627e-05
0.000162172
0.00010451
0.000505161
0.000646483
0.000808787
1.98042e-05
0.000953709
0.00110858
1.19348e-05
0.0011227
0.00112204
0.00113968
0.00116424
0.00119273
1.1278e-05
0.000896199
0.000518818
3.40514e-05
2.47377e-07
5.73834e-11
3.47787e-13
1.99503e-17
6.89514e-20
3.68211e-19
8.90451e-22
0
0
0
0
0
0
0
0
0
0
0
0
0
0
0
0
0
0
0
0
0
0
0
0
0
0
0
0
0
0
0
0
0
0
0
0
0
0
0
0
0
0
0
0
0
0
0
4.38465e-17
5.57545e-12
1.00806e-10
2.7654e-09
3.41967e-08
8.6968e-08
1.82094e-08
2.73783e-07
7.34979e-06
2.22345e-05
1.56281e-05
1.39303e-05
1.69669e-06
3.9536e-06
4.4336e-07
2.70295e-07
1.19471e-06
8.00747e-07
3.03871e-06
1.96366e-05
2.63347e-05
2.69773e-05
4.73784e-05
5.46973e-05
4.52659e-05
4.90501e-05
7.57716e-05
3.83508e-05
0.000252673
0.000464339
0.000619869
0.000788586
0.000816532
0.000931232
0.00094097
0.00107793
1.22031e-05
1.21456e-05
0.00109331
0.00111392
0.00114311
1.12549e-05
1.13965e-05
0.000875878
0.000463496
2.21435e-05
6.90401e-08
2.81086e-11
2.3323e-13
3.69631e-15
1.4769e-18
3.75684e-19
1.77073e-19
2.99114e-21
0
0
0
0
0
0
0
0
0
0
0
0
0
0
0
0
0
0
0
0
0
0
0
0
0
0
0
0
0
0
0
0
0
0
0
0
0
0
0
0
0
0
0
0
0
0
1.70721e-13
1.49382e-06
1.5423e-06
1.3757e-06
6.79322e-07
1.34753e-05
3.43617e-06
1.07516e-06
6.1731e-06
1.5069e-05
2.52003e-05
2.13913e-05
1.54159e-05
9.15199e-06
4.39137e-06
1.80503e-06
1.35452e-06
9.53399e-06
6.95166e-06
3.30332e-05
4.41166e-05
5.9335e-05
6.93349e-05
8.8097e-05
4.92077e-05
0.000112638
3.82121e-05
0.000206004
0.000365699
0.000620144
0.0007668
0.000815107
1.85427e-05
0.000918307
0.000916772
0.000995593
0.00104828
1.24545e-05
0.00106121
0.00108785
0.00112116
0.00116308
0.0010997
0.000881317
0.000375617
8.4578e-06
3.84999e-08
1.58869e-11
1.45052e-13
2.71973e-15
9.78774e-19
3.87715e-19
3.06348e-19
2.2807e-19
1.79157e-21
0
0
0
0
0
0
0
0
0
0
0
0
0
0
0
0
0
0
0
0
0
0
0
0
0
0
0
0
0
0
0
0
0
0
0
0
0
0
0
0
0
0
0
0
0
1.58579e-08
0.000178587
1.90878e-05
2.54974e-05
1.84392e-05
3.38048e-05
5.91935e-06
2.22647e-05
4.84381e-05
8.67578e-05
5.07587e-05
0.000113075
5.11978e-05
4.42866e-05
4.13657e-05
8.72015e-06
3.74931e-06
3.75241e-06
9.97595e-06
4.31869e-05
3.87821e-05
4.72205e-05
8.8359e-05
0.000118227
0.00015659
1.64269e-05
0.000227344
0.000326438
0.000525183
3.66599e-05
3.41467e-05
2.02571e-05
1.78834e-05
1.79941e-05
1.78881e-05
1.65897e-05
0.000861955
0.000864333
1.40035e-05
0.00101755
1.19317e-05
0.00114572
1.37757e-05
4.38628e-05
0.000313876
7.60953e-06
1.89311e-08
7.01617e-12
9.63667e-14
6.06457e-18
8.29809e-19
3.82109e-19
3.27752e-19
2.7209e-19
1.65691e-19
0
0
0
0
0
0
0
0
0
0
0
0
0
0
0
0
0
0
0
0
0
0
0
0
0
0
0
0
0
0
0
0
0
0
0
0
0
0
0
0
0
0
0
0
0
1.34546e-06
2.14561e-05
6.75414e-05
0.000112023
0.000174802
3.81829e-05
1.98663e-05
3.71134e-05
5.84976e-05
0.000301153
0.000723854
8.83935e-05
0.000302522
0.000130012
5.37775e-05
2.03547e-05
9.64429e-06
7.66634e-06
1.89107e-05
3.95209e-05
6.26243e-05
7.49007e-05
0.00011766
0.000190385
3.70835e-05
0.000335676
0.000378118
0.000503186
0.000636546
0.000819025
3.72977e-05
0.000817806
0.000889971
0.000864764
0.000842913
1.94008e-05
2.00089e-05
0.000821118
1.84808e-05
1.67541e-05
0.000921612
1.16637e-05
1.7483e-05
0.00081702
0.000222819
1.12582e-06
7.1956e-09
2.84907e-12
5.43946e-14
5.41153e-18
7.03882e-19
3.33522e-19
2.95888e-19
2.83624e-19
2.66504e-19
0
0
0
0
0
0
0
0
0
0
0
0
0
0
0
0
0
0
0
0
0
0
0
0
0
0
0
0
0
0
0
0
0
0
0
0
0
0
0
0
0
0
0
0
0
2.23972e-06
6.39051e-06
3.15002e-05
0.000217084
0.000496057
0.000119897
3.98334e-05
4.76478e-05
0.000150078
6.48369e-05
0.000886607
1.16602e-05
7.44913e-05
0.000344727
0.000117126
5.39829e-05
2.84771e-05
2.03402e-05
4.06629e-05
4.92446e-05
5.99389e-05
8.68482e-05
0.000142193
5.68429e-05
0.000155994
0.000455028
0.000138128
0.000118916
0.000106557
8.62494e-05
0.000834043
0.000795744
0.000786059
0.000733891
3.2961e-05
3.4492e-05
3.5481e-05
0.000687071
0.000690888
1.94145e-05
1.80221e-05
0.000935097
2.11983e-05
0.000674034
5.692e-05
9.98567e-07
3.79299e-09
1.23004e-12
2.70169e-14
4.49007e-18
4.53253e-19
1.12884e-20
5.92672e-22
2.61961e-21
1.79223e-23
0
0
0
0
0
0
0
0
0
0
0
0
0
0
0
0
0
0
0
0
0
0
0
0
0
0
0
0
0
0
0
0
0
0
0
0
0
0
0
0
0
0
0
0
0
8.88942e-06
7.3879e-06
1.4999e-05
6.35762e-05
0.000312719
3.97183e-05
4.01532e-05
4.00791e-05
0.000133045
0.000462363
0.000847717
1.97977e-05
3.68708e-05
4.79728e-05
0.000196925
7.90043e-05
3.55831e-05
4.02451e-05
3.326e-05
5.48357e-05
6.53087e-05
3.4452e-05
0.00013157
0.000223417
0.000321802
0.000372105
0.000401297
0.000484116
0.000550478
0.000650211
0.000767181
3.83165e-05
3.58784e-05
0.00070373
4.04271e-05
0.000646751
0.000641974
0.000668169
0.000686645
0.000686694
2.01648e-05
1.91922e-05
0.000797724
0.000610021
4.66473e-05
3.7161e-07
8.30548e-10
5.48282e-13
1.02185e-14
1.40875e-18
8.37585e-21
0
0
0
0
0
0
0
0
0
0
0
0
0
0
0
0
0
0
0
0
0
0
0
0
0
0
0
0
0
0
0
0
0
0
0
0
0
0
0
0
0
0
0
0
0
0
0
0
0
1.03579e-05
9.02286e-06
1.08104e-05
1.82549e-05
5.32287e-05
3.98261e-05
2.0629e-05
2.34084e-05
6.33604e-05
0.000154747
0.000288078
0.000317758
0.00010084
0.000100926
8.46574e-05
5.4656e-05
4.78819e-05
5.33527e-05
6.58374e-05
6.59949e-05
7.76655e-05
9.5248e-05
0.000113771
0.000155421
0.000233015
0.000139035
0.00032563
0.000107392
0.000400757
0.000553541
0.000103925
8.4496e-05
0.000671427
5.43158e-05
8.67521e-05
0.000496142
0.000475332
0.000444291
5.7183e-05
0.000690969
3.46958e-05
0.000793996
0.000776599
4.08414e-05
3.031e-05
7.14022e-08
1.80854e-10
2.51631e-13
6.25529e-15
7.95012e-19
1.13221e-27
0
0
0
0
0
0
0
0
0
0
0
0
0
0
0
0
0
0
0
0
0
0
0
0
0
0
0
0
0
0
0
0
0
0
0
0
0
0
0
0
0
0
0
0
0
0
0
0
0
9.7562e-06
9.73079e-06
1.18475e-05
1.21372e-05
1.30767e-05
1.22794e-05
9.85492e-06
1.25168e-05
2.35399e-05
3.60222e-05
5.15661e-05
5.70906e-05
4.50169e-05
3.03486e-05
1.90444e-05
2.41856e-05
4.39752e-05
6.34032e-05
6.83161e-05
3.01507e-05
7.7521e-05
2.78741e-05
8.85141e-05
0.000109673
0.000146649
0.000205582
0.000231093
0.000250142
0.000320582
0.000132063
0.000127396
0.000524115
0.000101359
9.83269e-05
0.000452049
0.000419525
0.000104382
0.00038337
0.000109131
0.000662899
0.000727253
4.08639e-05
0.000651875
0.000379229
1.77979e-05
2.67687e-08
1.24856e-11
1.21877e-13
1.4035e-15
6.55071e-19
7.71246e-22
0
0
0
0
0
0
0
0
0
0
0
0
0
0
0
0
0
0
0
0
0
0
0
0
0
0
0
0
0
0
0
0
0
0
0
0
0
0
0
0
0
0
0
0
0
0
0
0
0
9.48135e-06
9.73731e-06
1.03751e-05
1.15447e-05
1.17719e-05
1.00284e-05
9.13883e-06
9.4636e-06
1.11194e-05
1.10252e-05
9.5573e-06
1.09453e-05
9.52666e-06
8.73521e-06
8.99275e-06
1.04653e-05
1.90502e-05
3.61812e-05
5.15033e-05
8.25365e-05
3.11593e-05
6.94187e-05
7.83821e-05
9.08222e-05
0.000106168
0.000127518
2.7462e-05
0.000192782
0.000262806
8.71608e-05
0.000370373
0.00042346
0.000421676
0.000407254
0.000373173
0.000343087
0.000295008
0.000270492
0.000104804
0.000111889
0.000710515
0.000744344
0.000570392
3.02534e-05
1.2554e-05
1.01478e-08
4.69593e-12
5.89095e-14
5.67539e-18
7.45144e-19
2.51161e-19
4.94997e-28
0
0
0
0
0
0
0
0
0
0
0
0
0
0
0
0
0
0
0
0
0
0
0
0
0
0
0
0
0
0
0
0
0
0
0
0
0
0
0
0
0
0
0
0
0
0
0
0
9.6165e-06
1.01484e-05
9.98205e-06
1.00983e-05
1.09755e-05
1.12399e-05
1.07587e-05
9.99095e-06
8.70238e-06
6.51464e-06
5.76088e-06
4.91568e-06
3.97761e-06
3.95395e-06
4.85604e-06
6.54358e-06
9.03249e-06
1.52869e-05
2.9178e-05
3.63348e-05
3.45572e-05
5.25675e-05
6.88536e-05
2.30094e-05
2.26434e-05
0.000106677
0.00012347
0.00015165
0.00021723
3.22408e-05
3.38057e-05
0.00031153
0.000305648
0.000296165
4.86114e-05
0.000245334
0.000180842
5.67781e-05
3.72144e-05
0.000412176
0.000528504
0.000625066
0.000482125
0.000190634
2.92353e-06
4.1794e-09
1.82129e-12
2.74511e-14
4.83828e-18
1.07976e-18
3.11083e-19
2.07018e-19
0
0
0
0
0
0
0
0
0
0
0
0
0
0
0
0
0
0
0
0
0
0
0
0
0
0
0
0
0
0
0
0
0
0
0
0
0
0
0
0
0
0
0
0
0
0
0
0
1.00115e-05
1.0824e-05
1.08303e-05
1.02207e-05
9.80009e-06
9.77518e-06
8.91034e-06
7.5068e-06
5.3794e-06
4.53772e-06
3.24457e-06
2.34087e-06
2.08553e-06
1.90603e-06
2.29758e-06
3.73746e-06
5.93277e-06
7.52445e-06
1.55183e-05
2.59448e-05
3.51183e-05
4.44034e-05
5.95909e-05
7.81113e-05
8.5988e-05
9.84407e-05
2.2166e-05
0.00013302
0.00017215
0.00020459
0.000226065
1.58331e-05
1.53942e-05
0.00024161
0.000222066
0.000182612
0.000133283
9.0942e-05
0.000183948
0.000369361
0.000522183
0.000572144
0.000361567
0.000114427
9.281e-07
1.72044e-09
7.79924e-13
8.71747e-15
3.78594e-18
6.31004e-19
3.05795e-19
2.19193e-19
0
0
0
0
0
0
0
0
0
0
0
0
0
0
0
0
0
0
0
0
0
0
0
0
0
0
0
0
0
0
0
0
0
0
0
0
0
0
0
0
0
0
0
0
0
0
0
0
1.06221e-05
1.17676e-05
1.18861e-05
1.09866e-05
9.55348e-06
7.7652e-06
5.86913e-06
3.79436e-06
3.36338e-06
2.04314e-06
1.68716e-06
1.28868e-06
1.09281e-06
1.07852e-06
1.14041e-06
1.82339e-06
3.56779e-06
6.13136e-06
8.68711e-06
1.74505e-05
3.42218e-05
4.38622e-05
5.88935e-05
7.06351e-05
8.08515e-05
9.39237e-05
0.000106617
0.000118682
0.000140709
0.000159415
0.000178791
2.32302e-05
0.00019984
0.000190802
0.000168564
0.00011398
0.000167876
0.000144114
0.000126878
0.000330489
0.000487476
0.000100881
0.000280476
5.96417e-05
2.70809e-07
6.79789e-10
3.7851e-13
2.71649e-15
1.91447e-18
4.63573e-19
2.95148e-19
3.94157e-20
0
0
0
0
0
0
0
0
0
0
0
0
0
0
0
0
0
0
0
0
0
0
0
0
0
0
0
0
0
0
0
0
0
0
0
0
0
0
0
0
0
0
0
0
0
0
0
0
1.14446e-05
1.26727e-05
1.24969e-05
1.12653e-05
8.63927e-06
5.54445e-06
4.19267e-06
2.73152e-06
1.75807e-06
1.18063e-06
7.23863e-07
5.26482e-07
4.55252e-07
4.6676e-07
5.5248e-07
8.15013e-07
1.96212e-06
4.28184e-06
6.88935e-06
1.26743e-05
2.23364e-05
3.93485e-05
6.20063e-05
6.80183e-05
7.53121e-05
2.87153e-05
2.72641e-05
0.000104716
0.000112342
0.000123567
0.000139141
0.000154069
0.000156178
0.000146677
0.000113907
5.77353e-05
7.99382e-05
0.000133306
0.000177614
0.000296026
0.000453093
0.000448375
0.000192592
2.20973e-05
7.24078e-08
2.25257e-10
1.98313e-13
9.97435e-18
1.15399e-18
3.79635e-19
1.57318e-19
0
0
0
0
0
0
0
0
0
0
0
0
0
0
0
0
0
0
0
0
0
0
0
0
0
0
0
0
0
0
0
0
0
0
0
0
0
0
0
0
0
0
0
0
0
0
0
0
0
1.23663e-05
1.30118e-05
1.23221e-05
1.00168e-05
7.34835e-06
5.60848e-06
2.7751e-06
2.04495e-06
9.96715e-07
4.70277e-07
2.70904e-07
1.91459e-07
1.64347e-07
1.70627e-07
2.07081e-07
3.7228e-07
9.98146e-07
2.65227e-06
5.89038e-06
1.03215e-05
1.96636e-05
3.42099e-05
3.89181e-05
6.31568e-05
7.15029e-05
7.86249e-05
8.49408e-05
8.79145e-05
8.97202e-05
9.53745e-05
0.000106476
0.000116569
0.000118412
6.44811e-05
0.000117408
3.59571e-05
8.82254e-05
0.000133051
0.000161284
0.00027146
0.000414502
0.000346921
0.000124756
9.863e-06
2.08607e-08
2.6345e-11
1.0907e-13
6.26514e-18
8.23121e-19
3.16065e-19
1.16366e-19
0
0
0
0
0
0
0
0
0
0
0
0
0
0
0
0
0
0
0
0
0
0
0
0
0
0
0
0
0
0
0
0
0
0
0
0
0
0
0
0
0
0
0
0
0
0
0
0
0
1.2885e-05
1.20508e-05
9.91796e-06
1.05046e-05
7.48674e-06
4.89373e-06
2.73097e-06
1.06779e-06
4.10395e-07
1.80996e-07
1.01824e-07
6.72128e-08
4.96105e-08
5.60463e-08
9.33806e-08
1.85893e-07
4.96152e-07
1.50519e-06
4.02105e-06
8.18788e-06
1.64763e-05
2.90907e-05
4.38649e-05
5.59747e-05
3.95957e-05
6.58424e-05
6.75473e-05
3.45127e-05
7.1224e-05
7.3131e-05
8.00841e-05
8.68128e-05
8.69972e-05
7.37958e-05
2.88001e-05
3.90836e-05
0.000107304
0.000132811
0.000147872
0.000229323
0.000324815
0.00028718
7.23387e-05
7.02468e-06
8.17447e-09
3.33138e-12
5.55883e-14
3.95312e-18
6.22175e-19
2.3052e-19
2.91033e-31
0
0
0
0
0
0
0
0
0
0
0
0
0
0
0
0
0
0
0
0
0
0
0
0
0
0
0
0
0
0
0
0
0
0
0
0
0
0
0
0
0
0
0
0
0
0
0
0
0
1.23068e-05
1.07623e-05
1.01018e-05
9.61352e-06
7.27563e-06
3.56017e-06
1.48058e-06
6.51285e-07
1.77842e-07
7.63773e-08
4.17789e-08
2.33114e-08
1.67946e-08
2.69167e-08
5.02378e-08
1.03235e-07
2.60376e-07
8.09732e-07
2.40575e-06
6.21462e-06
5.38015e-05
2.16626e-05
3.29739e-05
4.46243e-05
3.94072e-05
5.18997e-05
5.2745e-05
5.71787e-05
5.46526e-05
5.48208e-05
5.88062e-05
6.27183e-05
6.12426e-05
4.63698e-05
2.46849e-05
6.06617e-05
0.000120661
0.000127257
0.000133915
0.000222629
3.17345e-05
0.000217908
3.63781e-05
1.16962e-06
3.00186e-09
1.33631e-12
2.59041e-14
2.47086e-18
4.64328e-19
1.89369e-19
0
0
0
0
0
0
0
0
0
0
0
0
0
0
0
0
0
0
0
0
0
0
0
0
0
0
0
0
0
0
0
0
0
0
0
0
0
0
0
0
0
0
0
0
0
0
0
0
0
0
8.57584e-06
7.42327e-06
7.77739e-06
5.69546e-06
4.18528e-06
2.35663e-06
1.04223e-06
3.80829e-07
9.66332e-08
3.50955e-08
1.9693e-08
8.1953e-09
8.36621e-09
1.40986e-08
2.81793e-08
6.12805e-08
1.48138e-07
4.30329e-07
1.35028e-06
3.67105e-06
7.23618e-06
1.16837e-05
2.14347e-05
3.21117e-05
3.83296e-05
4.0316e-05
4.46455e-05
4.21407e-05
4.05056e-05
3.9965e-05
4.25461e-05
4.38077e-05
3.87326e-05
3.46267e-05
4.12399e-05
8.23989e-05
0.000121883
0.000112707
0.000124749
0.000216542
0.000252897
0.000156528
1.53246e-05
3.17091e-07
9.66832e-10
5.46859e-13
9.75739e-15
1.52424e-18
3.62212e-19
7.03457e-20
0
0
0
0
0
0
0
0
0
0
0
0
0
0
0
0
0
0
0
0
0
0
0
0
0
0
0
0
0
0
0
0
0
0
0
0
0
0
0
0
0
0
0
0
0
0
0
0
0
0
6.44437e-06
2.89873e-06
2.46015e-06
2.2174e-06
1.5972e-06
9.10475e-07
4.39694e-07
1.78393e-07
4.00809e-08
1.85476e-08
1.07621e-08
3.43518e-09
4.75667e-09
8.03863e-09
1.63637e-08
3.74509e-08
8.94239e-08
2.40682e-07
7.25259e-07
1.97183e-06
4.33392e-06
6.66729e-06
1.21289e-05
2.16354e-05
2.79775e-05
5.57421e-05
4.53564e-05
2.98445e-05
2.85736e-05
2.83436e-05
7.04516e-05
2.85801e-05
1.9892e-05
3.20919e-05
5.59752e-05
8.69184e-05
0.000112243
9.11956e-05
0.000121006
0.00019864
0.000200481
9.71684e-05
5.24623e-06
1.78917e-07
2.28324e-10
2.42746e-13
1.31849e-15
1.08255e-18
2.57839e-19
2.16318e-21
4.48526e-24
0
0
0
0
0
0
0
0
0
0
0
0
0
0
0
0
0
0
0
0
0
0
0
0
0
0
0
0
0
0
0
0
0
0
0
0
0
0
0
0
0
0
0
0
0
0
0
0
0
2.18669e-07
1.66689e-07
1.56078e-07
1.80094e-07
1.86409e-07
1.57615e-07
1.05526e-07
5.11489e-08
1.21109e-08
9.01297e-09
5.88004e-09
1.87074e-09
2.72439e-09
4.51205e-09
8.89404e-09
1.99288e-08
4.63808e-08
1.09863e-07
2.76634e-07
6.81883e-07
1.45632e-06
3.51746e-06
4.99567e-06
7.69414e-06
1.30106e-05
1.46358e-05
1.49017e-05
1.50564e-05
1.49876e-05
1.54852e-05
1.56172e-05
1.29959e-05
2.35537e-05
4.0024e-05
5.90972e-05
8.34286e-05
9.37189e-05
6.04127e-05
0.000119035
0.000161914
0.000129589
3.5613e-05
1.72393e-06
6.43342e-09
3.30797e-12
5.62738e-14
3.59272e-18
5.0973e-19
3.43986e-24
0
0
0
0
0
0
0
0
0
0
0
0
0
0
0
0
0
0
0
0
0
0
0
0
0
0
0
0
0
0
0
0
0
0
0
0
0
0
0
0
0
0
0
0
0
0
0
0
0
0
0
1.49302e-08
8.99837e-09
8.66495e-09
8.90526e-09
1.31182e-08
1.77234e-08
1.67199e-08
8.91239e-09
5.01568e-09
4.66338e-09
3.83303e-09
2.141e-09
1.51454e-09
2.57342e-09
4.81581e-09
9.97614e-09
2.17456e-08
4.61021e-08
9.5775e-08
1.9595e-07
3.82557e-07
1.01175e-06
1.91832e-06
2.63467e-06
3.23635e-06
3.62063e-06
3.98129e-06
4.41493e-06
5.19272e-06
6.52812e-06
7.80229e-06
9.12636e-06
1.63021e-05
2.84235e-05
4.51087e-05
6.10857e-05
5.73677e-05
4.86057e-05
9.81165e-05
0.000103014
5.49625e-05
1.06222e-05
1.81241e-07
6.8206e-10
4.53389e-13
1.15878e-14
1.27545e-18
1.83256e-20
0
0
0
0
0
0
0
0
0
0
0
0
0
0
0
0
0
0
0
0
0
0
0
0
0
0
0
0
0
0
0
0
0
0
0
0
0
0
0
0
0
0
0
0
0
0
0
0
0
0
0
0
8.86058e-10
1.10284e-09
6.30076e-10
6.12599e-10
9.60471e-10
2.03978e-09
3.0798e-09
2.29654e-09
2.66846e-09
2.85753e-09
2.6602e-09
1.89792e-09
8.71816e-10
1.48621e-09
2.71108e-09
5.21109e-09
1.03037e-08
1.99639e-08
3.62322e-08
6.3411e-08
1.03308e-07
1.98253e-07
4.27283e-07
7.06666e-07
9.1315e-07
9.47054e-07
8.93897e-07
9.51723e-07
1.34766e-06
2.19275e-06
3.65649e-06
6.19984e-06
1.02783e-05
1.89191e-05
3.17322e-05
4.1056e-05
2.14575e-05
4.97867e-05
6.42522e-05
4.80975e-05
1.35306e-05
4.99685e-07
9.86662e-09
5.61471e-12
8.68759e-14
7.53371e-16
6.14904e-19
1.28775e-28
0
0
0
0
0
0
0
0
0
0
0
0
0
0
0
0
0
0
0
0
0
0
0
0
0
0
0
0
0
0
0
0
0
0
0
0
0
0
0
0
0
0
0
0
0
0
0
0
0
0
0
0
9.33567e-11
2.21594e-10
2.63062e-10
3.64923e-10
9.10239e-10
1.89648e-09
2.61939e-09
1.93921e-09
1.73534e-09
1.90117e-09
1.76435e-09
1.23111e-09
5.2293e-10
8.34192e-10
1.49511e-09
2.69711e-09
4.89806e-09
8.59363e-09
1.41643e-08
2.19034e-08
3.23078e-08
4.73468e-08
6.80864e-08
1.01262e-07
1.47209e-07
2.09127e-07
2.70055e-07
3.73604e-07
5.53556e-07
9.32989e-07
1.71858e-06
3.56962e-06
6.31403e-06
1.24413e-05
2.09629e-05
2.28666e-05
1.57903e-05
3.65455e-05
3.10507e-05
1.26585e-05
1.13117e-06
4.24784e-08
9.20175e-10
5.89791e-13
1.53343e-14
1.72633e-18
2.35382e-19
0
0
0
0
0
0
0
0
0
0
0
0
0
0
0
0
0
0
0
0
0
0
0
0
0
0
0
0
0
0
0
0
0
0
0
0
0
0
0
0
0
0
0
0
0
0
0
0
0
0
0
0
0
0
1.11522e-10
3.81754e-10
9.44202e-10
1.85969e-09
2.94921e-09
3.67587e-09
3.19121e-09
1.28327e-09
1.31786e-09
1.0738e-09
4.77386e-10
3.1382e-10
4.79232e-10
7.95072e-10
1.38501e-09
2.33602e-09
3.80674e-09
5.90175e-09
8.63451e-09
1.21822e-08
1.67254e-08
2.31274e-08
3.35235e-08
4.88093e-08
6.98975e-08
9.64788e-08
1.35466e-07
2.19938e-07
4.26692e-07
9.26888e-07
2.16454e-06
3.96854e-06
7.7288e-06
1.18745e-05
6.1417e-06
1.75852e-05
1.95047e-05
9.09825e-06
1.14822e-06
4.86016e-08
3.48886e-09
4.39945e-12
7.78481e-14
7.18116e-16
6.83018e-19
8.26583e-24
0
0
0
0
0
0
0
0
0
0
0
0
0
0
0
0
0
0
0
0
0
0
0
0
0
0
0
0
0
0
0
0
0
0
0
0
0
0
0
0
0
0
0
0
0
0
0
0
0
0
0
0
0
0
1.91347e-10
1.26216e-09
3.036e-09
5.0623e-09
5.67291e-09
4.0124e-09
3.77375e-09
1.35736e-09
8.9998e-10
5.41791e-10
1.56534e-10
2.34383e-10
3.4848e-10
5.28198e-10
8.37055e-10
1.27518e-09
1.89163e-09
2.74036e-09
3.77594e-09
5.08216e-09
6.67391e-09
8.66883e-09
1.15857e-08
1.53395e-08
2.02269e-08
2.47186e-08
3.90411e-08
8.74276e-08
2.45566e-07
6.52818e-07
1.38891e-06
1.99426e-06
3.43752e-06
4.22746e-06
7.24817e-06
9.98098e-06
5.86203e-06
1.57756e-06
4.53945e-08
3.29604e-09
1.60263e-11
2.80422e-13
7.20867e-15
1.27921e-18
1.97611e-20
0
0
0
0
0
0
0
0
0
0
0
0
0
0
0
0
0
0
0
0
0
0
0
0
0
0
0
0
0
0
0
0
0
0
0
0
0
0
0
0
0
0
0
0
0
0
0
0
0
0
0
0
0
0
0
6.45863e-11
3.04927e-09
6.19928e-09
9.06792e-09
8.62126e-09
7.83987e-09
3.45616e-09
1.53118e-09
5.63115e-10
1.86005e-10
1.31881e-10
1.75458e-10
2.25682e-10
2.87888e-10
3.73101e-10
4.84921e-10
6.4021e-10
8.94197e-10
1.27737e-09
1.7781e-09
2.34838e-09
2.80531e-09
2.85772e-09
2.10014e-09
2.81651e-09
4.83787e-09
1.13635e-08
5.54492e-08
2.11531e-07
5.14051e-07
7.45723e-07
1.06547e-06
1.99397e-06
3.42832e-06
4.90157e-06
3.14739e-06
7.93854e-07
1.12262e-07
2.94775e-09
1.97717e-11
7.05782e-13
2.1025e-14
2.79322e-18
5.45655e-19
0
0
0
0
0
0
0
0
0
0
0
0
0
0
0
0
0
0
0
0
0
0
0
0
0
0
0
0
0
0
0
0
0
0
0
0
0
0
0
0
0
0
0
0
0
0
0
0
0
0
0
0
0
0
0
0
0
2.57179e-09
6.03367e-09
1.05141e-08
1.24725e-08
9.11205e-09
3.90281e-09
1.16702e-09
3.17071e-10
6.80152e-11
8.87627e-11
9.23862e-11
7.61491e-11
2.46979e-11
2.86147e-11
7.25879e-11
1.65744e-10
3.398e-10
6.08144e-10
9.8615e-10
1.38791e-09
1.69393e-09
1.71796e-09
1.64103e-09
2.20334e-09
4.00797e-09
8.33477e-09
7.21399e-08
1.88047e-07
3.39788e-07
4.43823e-07
9.33269e-07
1.58568e-06
2.05445e-06
1.77611e-06
4.78496e-07
2.46236e-08
7.15975e-09
2.04428e-11
8.46345e-13
3.53363e-14
5.93415e-18
9.692e-19
1.76941e-19
0
0
0
0
0
0
0
0
0
0
0
0
0
0
0
0
0
0
0
0
0
0
0
0
0
0
0
0
0
0
0
0
0
0
0
0
0
0
0
0
0
0
0
0
0
0
0
0
0
0
0
0
0
0
0
0
0
0
1.93205e-09
2.32694e-09
1.11438e-09
1.75827e-09
3.58907e-09
7.56709e-10
1.25539e-10
3.78055e-11
4.04426e-11
1.44072e-11
2.46491e-12
7.83819e-12
2.23194e-11
5.7573e-11
1.36954e-10
2.84477e-10
5.30984e-10
8.68788e-10
1.25202e-09
1.51647e-09
1.48976e-09
1.3439e-09
1.76336e-09
3.50253e-09
2.71552e-08
8.30301e-08
1.4729e-07
1.80562e-07
2.6782e-07
4.73458e-07
6.08077e-07
6.60632e-07
3.11081e-07
2.57155e-08
2.5802e-09
1.914e-10
1.10433e-12
4.12611e-14
9.569e-18
1.31599e-18
4.1657e-19
0
0
0
0
0
0
0
0
0
0
0
0
0
0
0
0
0
0
0
0
0
0
0
0
0
0
0
0
0
0
0
0
0
0
0
0
0
0
0
0
0
0
0
0
0
0
0
0
0
0
0
0
0
0
0
0
0
0
0
9.72377e-10
6.73796e-10
1.31737e-09
2.68829e-09
2.71882e-09
4.48267e-10
3.50323e-11
1.57122e-11
8.19355e-12
5.20831e-13
1.59059e-12
5.53366e-12
1.67732e-11
4.66063e-11
1.14401e-10
2.46555e-10
4.8169e-10
8.0418e-10
1.17982e-09
1.4153e-09
1.36681e-09
1.15028e-09
2.7386e-09
1.4696e-08
4.26964e-08
6.82664e-08
7.86935e-08
6.89613e-08
9.69837e-08
9.85962e-08
1.01484e-07
8.85033e-08
3.06911e-08
3.91358e-09
2.71773e-11
2.45071e-12
6.37782e-14
1.2206e-17
1.73559e-18
4.79233e-19
3.20611e-24
0
0
0
0
0
0
0
0
0
0
0
0
0
0
0
0
0
0
0
0
0
0
0
0
0
0
0
0
0
0
0
0
0
0
0
0
0
0
0
0
0
0
0
0
0
0
0
0
0
0
0
0
0
0
0
0
0
0
0
0
6.4359e-10
1.00102e-09
3.38679e-09
2.83634e-09
2.7403e-10
2.53453e-12
4.46813e-12
9.64751e-14
2.99983e-13
9.91362e-13
3.74989e-12
1.23098e-11
3.59914e-11
9.28375e-11
2.14922e-10
4.27954e-10
7.45831e-10
1.09778e-09
1.3462e-09
1.76747e-09
4.1376e-09
9.7206e-09
1.92942e-08
3.14192e-08
3.58623e-08
2.89034e-08
2.07163e-08
1.40758e-08
9.18844e-09
1.07663e-08
9.91569e-09
5.58014e-09
3.21807e-10
1.79295e-12
1.11453e-13
1.77681e-17
2.09769e-18
5.85008e-19
1.27956e-23
0
0
0
0
0
0
0
0
0
0
0
0
0
0
0
0
0
0
0
0
0
0
0
0
0
0
0
0
0
0
0
0
0
0
0
0
0
0
0
0
0
0
0
0
0
0
0
0
0
0
0
0
0
0
0
0
0
0
0
0
0
0
1.01101e-09
1.95749e-09
2.35283e-09
1.86146e-10
1.57476e-12
5.43636e-13
4.40086e-14
1.63297e-13
5.851e-13
2.32165e-12
8.30585e-12
2.57116e-11
7.208e-11
1.72518e-10
3.58468e-10
6.37724e-10
9.71638e-10
1.81837e-09
3.51887e-09
6.33132e-09
1.04244e-08
1.47849e-08
1.63849e-08
1.35994e-08
9.49914e-09
6.8703e-09
5.19317e-09
2.15326e-09
1.59714e-09
1.547e-09
5.67721e-10
3.66021e-12
1.40405e-13
2.8269e-15
2.83772e-18
7.83465e-19
1.88696e-20
0
0
0
0
0
0
0
0
0
0
0
0
0
0
0
0
0
0
0
0
0
0
0
0
0
0
0
0
0
0
0
0
0
0
0
0
0
0
0
0
0
0
0
0
0
0
0
0
0
0
0
0
0
0
0
0
0
0
0
0
0
0
0
0
0
1.57258e-09
1.32565e-10
8.53091e-13
4.10389e-15
1.62892e-14
7.92435e-14
3.15542e-13
1.28118e-12
5.08462e-12
1.6922e-11
4.89367e-11
1.24975e-10
2.64509e-10
4.8861e-10
1.14516e-09
2.43653e-09
3.90651e-09
5.61698e-09
7.30323e-09
8.07623e-09
6.94853e-09