/*--------------------------------*- C++ -*----------------------------------*\
  =========                 |
  \\      /  F ield         | OpenFOAM: The Open Source CFD Toolbox
   \\    /   O peration     | Website:  https://openfoam.org
    \\  /    A nd           | Version:  6
     \\/     M anipulation  |
\*---------------------------------------------------------------------------*/
FoamFile
{
    version     2.0;
    format      ascii;
    class       volScalarField;
    location    "0.005";
    object      CH3;
}
// * * * * * * * * * * * * * * * * * * * * * * * * * * * * * * * * * * * * * //

dimensions      [0 0 0 0 0 0 0];

internalField   nonuniform List<scalar> 
8000
(
4.34761e-23
1.35684e-18
8.93668e-18
9.5454e-17
1.4838e-15
2.40386e-14
2.69743e-13
1.67079e-12
6.01844e-12
1.54967e-11
3.1353e-11
5.36381e-11
8.48281e-11
1.14222e-10
1.15988e-10
1.12822e-10
1.55327e-10
3.51513e-10
1.18974e-09
6.53721e-09
5.34676e-08
4.74056e-07
4.42849e-06
4.52748e-06
2.43914e-05
0.000103541
0.000161584
0.000160674
0.000130688
0.000103444
9.87143e-05
0.000119488
0.000149249
0.000178708
0.000180807
0.00017775
0.000169523
0.000167655
0.000158108
0.000151986
0.000150467
0.00014962
0.000148555
0.00015485
0.000168652
3.31318e-05
2.49816e-06
1.95825e-06
1.43224e-06
2.27419e-07
1.10863e-08
7.70597e-10
1.54822e-11
0
0
0
0
0
0
0
0
0
0
0
0
0
0
0
0
0
0
0
0
0
0
0
0
0
0
0
0
0
0
0
0
0
0
0
0
0
0
0
0
0
0
0
0
0
0
0
7.02498e-22
1.27619e-17
3.54328e-17
3.30127e-16
3.56489e-15
5.44363e-14
6.80538e-13
5.09255e-12
2.24641e-11
6.13164e-11
1.20997e-10
1.8773e-10
2.72873e-10
3.97406e-10
3.66885e-10
2.68985e-10
3.07904e-10
6.44339e-10
1.76438e-09
7.71021e-09
6.14585e-08
7.78181e-07
0.00026426
1.04939e-05
3.19998e-05
0.000143905
0.000208358
0.000185538
0.00014067
0.000102512
9.53674e-05
0.000117079
0.000148867
0.000179399
0.000180868
0.0001833
0.00016807
0.000171409
0.000156596
0.00015589
0.000152246
0.000148285
0.000147613
0.000154284
0.000169687
4.13056e-05
2.90217e-06
1.78447e-06
1.90281e-06
3.32224e-07
1.74209e-08
1.06408e-09
6.31993e-12
0
0
0
0
0
0
0
0
0
0
0
0
0
0
0
0
0
0
0
0
0
0
0
0
0
0
0
0
0
0
0
0
0
0
0
0
0
0
0
0
0
0
0
0
0
0
0
5.1351e-18
6.13286e-09
5.03984e-18
1.41358e-08
1.69958e-14
2.00888e-13
2.30673e-12
2.33027e-11
9.57474e-08
5.07205e-10
1.06035e-09
1.43329e-09
1.60717e-09
2.48521e-09
1.6218e-07
1.23787e-07
9.49718e-10
2.10636e-09
4.31787e-09
1.10098e-08
4.90123e-08
3.49633e-07
3.44551e-06
3.43538e-06
1.54157e-05
0.000114685
0.000194392
0.000195431
0.000124795
8.69133e-05
8.52873e-05
0.000112821
0.000149047
0.000181116
0.000180714
0.000176573
0.000170415
0.000168299
0.000158095
0.000152565
0.000149048
0.00014844
0.000149742
0.000157955
0.000162476
5.31178e-05
4.13256e-05
1.32627e-06
2.1545e-06
1.60263e-07
9.52594e-09
6.76339e-10
9.35315e-19
0
0
0
0
0
0
0
0
0
0
0
0
0
0
0
0
0
0
0
0
0
0
0
0
0
0
0
0
0
0
0
0
0
0
0
0
0
0
0
0
0
0
0
0
0
0
0
7.23431e-22
2.09879e-16
6.82358e-15
6.57778e-14
3.23791e-13
1.01747e-12
6.32177e-12
5.67871e-11
5.23946e-10
1.76966e-07
1.28572e-08
1.47624e-08
1.34122e-08
2.09822e-07
1.79227e-09
1.36352e-09
2.44514e-09
1.09639e-08
3.97439e-07
2.43679e-08
6.25633e-08
1.77794e-06
1.06778e-06
1.80475e-06
5.7559e-06
3.59596e-05
8.77601e-05
0.000104002
8.93847e-05
0.00017253
8.12955e-05
0.000113605
0.000151965
0.000183718
0.000180126
0.000171961
0.000171088
0.000161689
0.000153766
0.000151088
0.0001449
0.000144489
0.000146795
0.000156283
0.000163403
4.92317e-05
2.19429e-06
6.45975e-07
3.02151e-07
4.67175e-08
3.68583e-09
2.63982e-10
3.22024e-22
0
0
0
0
0
0
0
0
0
0
0
0
0
0
0
0
0
0
0
0
0
0
0
0
0
0
0
0
0
0
0
0
0
0
0
0
0
0
0
0
0
0
0
0
0
0
0
1.02676e-19
2.49393e-16
2.93061e-08
7.7808e-13
6.47351e-08
5.90905e-12
1.50347e-11
5.77648e-08
9.00806e-10
2.23766e-07
2.64227e-06
2.02025e-06
7.30771e-07
9.12736e-09
2.97573e-09
1.68803e-07
8.03512e-09
5.56616e-07
5.36327e-08
6.88936e-08
1.34033e-06
2.08543e-06
7.2205e-07
1.22085e-05
2.25278e-05
1.40546e-05
4.79527e-05
0.000209282
0.000141568
8.38581e-05
8.26487e-05
0.000119907
0.000156979
0.000176799
0.000185202
0.000178676
0.000168948
0.000161141
0.000157665
0.000145474
0.000140149
0.000140148
0.000146664
0.000158957
0.000164045
4.96095e-05
1.71787e-06
3.80995e-07
1.10145e-07
1.56608e-08
1.64492e-09
3.19356e-11
0
0
0
0
0
0
0
0
0
0
0
0
0
0
0
0
0
0
0
0
0
0
0
0
0
0
0
0
0
0
0
0
0
0
0
0
0
0
0
0
0
0
0
0
0
0
0
0
3.7395e-18
4.33292e-17
2.60854e-13
3.54624e-08
3.3968e-11
4.94278e-08
2.90883e-11
7.70276e-11
3.91311e-10
2.77248e-09
1.37084e-08
1.45801e-08
7.45688e-09
3.24044e-09
2.94427e-09
6.9267e-09
2.80745e-08
1.30481e-06
2.64537e-07
3.10679e-06
2.85604e-07
3.32492e-06
7.87603e-07
1.39891e-05
3.2137e-05
1.23675e-05
2.68916e-05
0.000168057
0.000126092
5.29268e-05
7.23831e-05
0.000129238
0.0002778
0.000177295
0.000179032
0.000174791
0.000164048
0.00016164
0.000151958
0.000139291
0.000135135
0.000135789
0.000131006
0.000156651
0.000164824
5.90666e-05
1.9637e-06
3.41214e-07
6.40275e-08
9.60731e-09
1.75213e-09
3.35649e-10
0
0
0
0
0
0
0
0
0
0
0
0
0
0
0
0
0
0
0
0
0
0
0
0
0
0
0
0
0
0
0
0
0
0
0
0
0
0
0
0
0
0
0
0
0
0
0
0
2.60746e-18
6.35265e-16
5.79516e-14
7.02143e-13
3.83328e-12
1.06386e-11
6.60902e-08
1.36548e-10
3.93498e-10
8.85429e-10
1.22872e-07
1.53442e-07
1.38048e-07
2.91886e-09
5.98189e-09
1.9509e-08
5.92583e-08
2.45435e-07
1.11407e-05
7.63131e-07
6.45857e-06
6.85049e-07
7.93983e-06
3.03134e-06
0.000105588
2.23871e-05
1.79102e-05
2.48544e-05
2.63955e-05
4.18344e-05
8.02787e-05
0.00013298
0.00016739
0.000177343
0.000175487
0.000176156
0.000163248
0.000159144
0.000146869
0.000110817
0.000130288
0.000131584
0.000143263
0.000155187
0.000165679
7.71105e-05
2.61228e-06
4.66497e-07
7.55829e-08
9.12209e-09
2.40281e-09
4.96268e-10
0
0
0
0
0
0
0
0
0
0
0
0
0
0
0
0
0
0
0
0
0
0
0
0
0
0
0
0
0
0
0
0
0
0
0
0
0
0
0
0
0
0
0
0
0
0
0
0
6.98207e-09
1.10515e-08
6.68585e-14
1.01983e-12
4.35857e-12
5.66614e-08
1.20746e-10
9.07612e-10
1.68248e-07
2.03539e-09
1.75774e-09
1.85267e-09
2.73131e-09
9.23413e-09
3.46699e-07
6.14074e-07
1.82453e-06
5.73724e-06
6.23138e-06
1.86585e-05
1.55427e-06
1.56021e-06
1.29448e-05
3.93796e-06
1.37171e-05
4.06571e-05
1.02875e-05
1.29204e-05
2.35393e-05
6.07814e-05
0.000116026
0.000149588
0.000168259
0.000177171
0.000176187
0.00016808
0.000162765
0.000153072
0.000142613
0.000130723
0.00012606
0.000127178
0.000141513
0.000158704
0.0001664
0.000100153
3.37929e-06
1.55601e-06
8.21448e-08
5.82344e-10
1.14733e-11
3.39415e-10
0
0
0
0
0
0
0
0
0
0
0
0
0
0
0
0
0
0
0
0
0
0
0
0
0
0
0
0
0
0
0
0
0
0
0
0
0
0
0
0
0
0
0
0
0
0
0
0
7.48829e-09
1.60981e-08
3.65632e-13
9.95298e-12
4.62112e-08
7.64015e-11
8.92177e-08
5.04873e-09
5.03633e-07
1.03474e-08
2.32238e-07
2.06449e-07
8.8495e-09
2.09804e-08
4.38709e-08
9.86049e-07
2.61144e-06
1.01784e-05
5.51815e-05
6.93414e-06
3.6737e-06
1.89701e-05
3.92305e-06
2.62625e-05
3.5308e-05
9.59e-06
9.6616e-06
1.40799e-05
3.95731e-05
0.000106462
0.000237829
0.000241324
0.000175821
0.000178272
0.000181029
0.000165096
0.000158567
0.000147605
0.000139318
0.000128921
0.000105508
0.000107083
0.00013952
0.000158209
0.000265633
0.000182646
3.88411e-06
5.1313e-07
6.34299e-08
5.14505e-09
1.9573e-09
2.45227e-10
0
0
0
0
0
0
0
0
0
0
0
0
0
0
0
0
0
0
0
0
0
0
0
0
0
0
0
0
0
0
0
0
0
0
0
0
0
0
0
0
0
0
0
0
0
0
0
0
6.90529e-19
1.56719e-08
3.08999e-08
3.69372e-08
5.09227e-11
8.1321e-08
1.02757e-09
4.55959e-09
1.50963e-08
4.31662e-07
2.10179e-08
3.37273e-08
7.05507e-07
1.11068e-06
2.83827e-06
1.95017e-06
3.31372e-07
1.80879e-06
2.60704e-05
1.29e-05
8.88152e-06
1.41078e-05
1.18338e-05
1.48784e-05
1.40546e-05
1.27949e-05
1.55448e-05
2.33385e-05
5.12624e-05
0.000196314
0.00015887
0.000174374
0.00023458
0.00017426
0.000172278
0.000139332
0.000151032
0.000142767
0.000137015
0.000128686
0.000108931
0.00012287
0.000138405
0.000158417
0.000165888
8.85534e-05
2.61828e-05
4.07432e-07
4.8241e-08
3.95894e-09
1.99552e-09
2.41132e-10
0
0
0
0
0
0
0
0
0
0
0
0
0
0
0
0
0
0
0
0
0
0
0
0
0
0
0
0
0
0
0
0
0
0
0
0
0
0
0
0
0
0
0
0
0
0
0
0
9.23575e-09
7.70179e-13
1.17237e-11
7.44138e-11
3.7787e-10
1.66591e-07
1.87661e-07
4.37253e-07
6.12338e-08
8.85007e-08
1.33468e-07
1.89214e-06
2.44317e-07
2.48085e-06
3.17373e-07
3.50979e-07
5.41234e-07
1.93222e-05
3.96467e-05
5.59681e-05
1.86965e-05
4.47859e-05
2.7988e-05
6.0152e-05
4.66204e-05
2.41915e-05
3.15686e-05
4.45707e-05
8.26658e-05
0.000135207
0.000166611
0.000177267
0.000179961
0.00017943
0.000170744
0.000138974
0.00014504
0.000129832
0.000135689
0.000129424
0.000124115
0.000122509
0.000137352
0.000154578
0.000164673
7.78041e-05
2.44697e-06
3.20358e-07
3.63032e-08
4.50375e-11
1.52418e-09
2.40036e-10
0
0
0
0
0
0
0
0
0
0
0
0
0
0
0
0
0
0
0
0
0
0
0
0
0
0
0
0
0
0
0
0
0
0
0
0
0
0
0
0
0
0
0
0
0
0
0
0
4.12816e-14
6.12414e-11
7.54372e-10
2.09637e-07
1.27101e-08
5.33414e-07
7.22234e-07
1.77122e-07
1.09946e-06
1.05771e-06
1.10074e-06
1.12539e-06
1.38083e-06
8.58682e-06
9.47832e-07
9.51149e-07
1.28901e-06
2.25668e-05
4.0629e-05
4.48923e-05
2.95808e-05
3.59164e-05
5.27687e-05
7.64923e-05
4.84404e-05
4.20373e-05
5.83701e-05
0.000109794
0.000126407
0.000223857
0.000173968
0.000186114
0.000181322
0.000174743
0.000165238
0.000157477
0.000131428
0.000137229
0.000135331
0.000130536
0.000126088
0.000121761
0.000130676
0.000155705
0.000162441
0.000107313
1.42173e-05
2.35771e-07
2.67635e-08
4.3465e-09
5.69305e-12
2.73102e-10
4.69804e-13
0
0
0
0
0
0
0
0
0
0
0
0
0
0
0
0
0
0
0
0
0
0
0
0
0
0
0
0
0
0
0
0
0
0
0
0
0
0
0
0
0
0
0
0
0
0
0
7.49853e-12
1.16629e-08
6.94634e-08
1.25117e-06
2.67694e-06
4.56154e-06
6.49355e-07
9.96598e-06
3.09296e-05
3.2854e-05
2.00467e-05
1.80175e-05
7.45973e-06
1.5272e-05
3.56555e-06
2.90349e-06
2.20985e-05
6.60612e-06
1.78061e-05
5.19913e-05
6.1422e-05
5.91509e-05
8.1944e-05
0.000130545
7.11639e-05
6.79231e-05
8.40444e-05
0.000158451
0.000145283
0.000172805
0.000181874
0.000181626
0.000185709
0.000169512
0.000161012
0.000155075
0.000140603
0.000140623
0.000135685
0.000131743
0.00012785
0.000118087
0.00013377
0.000157303
0.000158248
7.61889e-05
1.48983e-06
1.51647e-07
1.98459e-08
4.21438e-09
8.66575e-10
2.76582e-10
1.87734e-10
1.91925e-12
0
0
0
0
0
0
0
0
0
0
0
0
0
0
0
0
0
0
0
0
0
0
0
0
0
0
0
0
0
0
0
0
0
0
0
0
0
0
0
0
0
0
0
0
0
0
3.41189e-09
9.55045e-06
1.12206e-05
1.23727e-05
4.41067e-06
3.52759e-05
2.19529e-05
6.67569e-06
2.32941e-05
3.39348e-05
4.01453e-05
3.46285e-05
2.9013e-05
2.18273e-05
1.46617e-05
9.31622e-06
9.29973e-06
4.17551e-05
3.20372e-05
7.89034e-05
0.000200597
9.70378e-05
0.000100572
0.000109256
0.000137302
0.000108462
0.000165844
0.000141812
0.000172208
0.000186538
0.000187696
0.000187663
0.000170235
0.00016817
0.000157536
0.000150586
0.00014428
0.000152457
0.000136689
0.000132981
0.000129663
0.000124115
0.000137172
0.000154736
0.000159689
2.3993e-05
1.08845e-06
1.20247e-07
1.43543e-08
3.22568e-09
6.24665e-10
2.82054e-10
2.26219e-10
1.72204e-10
1.1786e-12
0
0
0
0
0
0
0
0
0
0
0
0
0
0
0
0
0
0
0
0
0
0
0
0
0
0
0
0
0
0
0
0
0
0
0
0
0
0
0
0
0
0
0
0
0
3.48421e-06
0.000278503
0.000215154
0.000104685
4.13174e-05
7.82939e-05
2.39377e-05
5.4146e-05
0.000105729
0.000108835
0.000153904
0.000111562
0.000108991
6.70102e-05
8.8071e-05
2.75464e-05
1.78861e-05
1.95251e-05
3.90238e-05
0.000125721
0.000203198
0.000151642
0.000112665
0.000124206
0.000136057
0.000217236
0.000152814
0.000166565
0.000184506
0.000198426
0.000191203
0.000177812
0.000167295
0.000169835
0.000170928
0.000168811
0.000143652
0.000140689
0.000160234
0.000133354
0.000144353
0.000125768
0.00014553
0.000207826
0.000148836
3.97641e-05
7.60013e-07
8.74725e-08
1.16391e-08
2.75267e-09
5.44822e-10
2.78149e-10
2.38713e-10
1.96503e-10
1.25422e-10
0
0
0
0
0
0
0
0
0
0
0
0
0
0
0
0
0
0
0
0
0
0
0
0
0
0
0
0
0
0
0
0
0
0
0
0
0
0
0
0
0
0
0
0
0
9.50296e-06
7.82786e-05
0.000136722
0.000242975
0.000184099
0.000151971
5.59013e-05
8.39125e-05
0.000179974
0.000217214
0.00028762
0.000220391
0.000197731
0.000139864
8.65232e-05
4.74642e-05
3.14918e-05
2.96375e-05
5.54131e-05
0.000130793
0.000103502
0.00010712
0.000128839
0.000157335
0.000240615
0.000177435
0.000181881
0.000185224
0.000190778
0.000188201
0.000196197
0.000179211
0.000164217
0.000154163
0.000147871
0.000181577
0.000184066
0.000139054
0.000173387
0.000163158
0.000134198
0.000137329
0.000156822
0.000154147
0.00013755
5.95271e-06
5.05341e-07
6.08727e-08
8.80979e-09
2.45086e-09
4.77059e-10
2.49881e-10
2.22233e-10
2.04676e-10
1.6817e-10
0
0
0
0
0
0
0
0
0
0
0
0
0
0
0
0
0
0
0
0
0
0
0
0
0
0
0
0
0
0
0
0
0
0
0
0
0
0
0
0
0
0
0
0
0
3.22845e-06
3.34271e-05
9.25519e-05
0.000198135
0.00024204
0.000169817
9.42549e-05
0.000104162
0.000181362
0.000220873
0.000274304
0.000139083
0.00022196
0.000210421
0.000140115
8.85062e-05
6.04084e-05
5.12336e-05
8.34533e-05
9.12535e-05
9.61347e-05
0.00011179
0.000138582
0.000251051
0.000241392
0.000185325
0.000250424
0.000246456
0.000237928
0.000224428
0.00016764
0.000166622
0.000156474
0.000153474
0.00019593
0.000199606
0.000201194
0.00014199
0.000146069
0.000175779
0.000164823
0.000134928
0.000174097
0.00016033
0.000195123
2.22227e-05
9.59117e-07
4.24268e-08
7.1081e-09
2.09584e-09
3.35005e-10
3.6578e-11
4.87658e-15
1.76018e-12
6.61449e-17
0
0
0
0
0
0
0
0
0
0
0
0
0
0
0
0
0
0
0
0
0
0
0
0
0
0
0
0
0
0
0
0
0
0
0
0
0
0
0
0
0
0
0
0
0
1.65158e-05
3.44429e-05
5.02532e-05
0.000113963
0.000197312
0.000278715
9.55749e-05
9.52413e-05
0.000166988
0.000205855
0.000217613
0.000166451
0.000184118
0.000282922
0.000160252
0.000112734
0.000139897
7.5377e-05
0.000141704
9.22837e-05
9.75482e-05
0.000195296
0.00013117
0.000152072
0.000172389
0.000177656
0.000177775
0.000171405
0.000169364
0.000166126
0.000159159
0.000203928
0.000200806
0.000141185
0.000209626
0.000131225
0.000131405
0.000133911
0.00013944
0.000147429
0.000176516
0.000169255
0.000150829
0.000151167
0.000147825
1.42906e-05
2.27163e-07
3.07649e-08
5.73159e-09
8.60373e-10
1.83132e-11
0
0
0
0
0
0
0
0
0
0
0
0
0
0
0
0
0
0
0
0
0
0
0
0
0
0
0
0
0
0
0
0
0
0
0
0
0
0
0
0
0
0
0
0
0
0
0
0
0
1.85522e-05
3.04109e-05
4.07659e-05
4.81349e-05
9.00192e-05
7.97252e-05
5.24581e-05
5.75638e-05
0.000102273
0.000134363
0.000140203
0.000132461
0.000252839
0.00021595
9.64904e-05
8.67472e-05
8.37243e-05
8.9389e-05
0.000100951
0.00010039
0.000106871
0.000114869
0.000121652
0.000136837
0.000149954
0.000260782
0.000162086
0.000266013
0.000160933
0.000153547
0.000232679
0.000220037
0.000135611
0.000212086
0.000215113
0.000129895
0.000134875
0.000150636
0.000213275
0.000141334
0.000191847
0.000144596
0.000145166
0.000249228
0.000100986
1.15515e-06
1.54509e-07
2.10556e-08
3.83786e-09
5.51324e-10
5.90269e-30
0
0
0
0
0
0
0
0
0
0
0
0
0
0
0
0
0
0
0
0
0
0
0
0
0
0
0
0
0
0
0
0
0
0
0
0
0
0
0
0
0
0
0
0
0
0
0
0
0
1.69041e-05
2.35855e-05
4.09142e-05
4.72629e-05
4.00438e-05
3.30447e-05
2.76678e-05
3.29085e-05
5.19886e-05
6.27231e-05
6.42134e-05
5.86618e-05
4.76909e-05
3.87255e-05
4.96676e-05
5.07723e-05
7.47866e-05
9.613e-05
0.00010316
0.000234446
0.000108983
0.000237126
0.000110149
0.00011836
0.000131844
0.000140566
0.000144348
0.000143787
0.000146032
0.000248781
0.000235058
0.000130758
0.000216914
0.000214243
0.000121879
0.000123542
0.000223662
0.000147267
0.000224283
0.000138664
0.000142419
0.000205731
0.000145605
0.000137344
6.53612e-05
7.16365e-07
1.08018e-07
1.41466e-08
2.57349e-09
4.57245e-10
3.01957e-13
0
0
0
0
0
0
0
0
0
0
0
0
0
0
0
0
0
0
0
0
0
0
0
0
0
0
0
0
0
0
0
0
0
0
0
0
0
0
0
0
0
0
0
0
0
0
0
0
0
1.62371e-05
1.87124e-05
2.52535e-05
3.66422e-05
4.49369e-05
3.92843e-05
3.50754e-05
3.41621e-05
3.43431e-05
3.17343e-05
2.61827e-05
2.18176e-05
1.75087e-05
1.52425e-05
1.62939e-05
2.22551e-05
4.34946e-05
0.000143918
8.4839e-05
0.00011012
0.000245934
0.000101694
0.000106233
0.000112202
0.000118401
0.000125619
0.000291019
0.000129557
0.00013221
0.000245063
0.000127667
0.000117407
0.000114193
0.00011283
0.000113265
0.000118069
0.000132716
0.000151969
0.000241286
0.000228258
0.000139741
0.000141325
0.000140513
0.000224619
4.51044e-05
4.71151e-07
7.61592e-08
1.05874e-08
2.46552e-09
4.76409e-10
1.87723e-10
2.67116e-30
0
0
0
0
0
0
0
0
0
0
0
0
0
0
0
0
0
0
0
0
0
0
0
0
0
0
0
0
0
0
0
0
0
0
0
0
0
0
0
0
0
0
0
0
0
0
0
0
1.65112e-05
1.82045e-05
1.92183e-05
2.28923e-05
3.23041e-05
3.97206e-05
4.03868e-05
3.85829e-05
3.34628e-05
2.53154e-05
1.9378e-05
1.49764e-05
1.11584e-05
9.1994e-06
9.12919e-06
1.16479e-05
2.04512e-05
3.59684e-05
5.7036e-05
0.000183228
0.00019359
8.75076e-05
0.000100342
0.000288644
0.000281684
0.000117034
0.000119428
0.000119138
0.000117852
0.000248451
0.000233566
0.000109006
0.00010598
0.000105184
0.000212374
0.000116181
0.000138238
0.00023921
0.000264576
0.000156143
0.000155181
0.000144824
0.000132767
0.000104194
7.90518e-06
3.33514e-07
5.21447e-08
8.14209e-09
2.10053e-09
6.11154e-10
2.13381e-10
1.45759e-10
0
0
0
0
0
0
0
0
0
0
0
0
0
0
0
0
0
0
0
0
0
0
0
0
0
0
0
0
0
0
0
0
0
0
0
0
0
0
0
0
0
0
0
0
0
0
0
0
1.73691e-05
1.93398e-05
1.98808e-05
1.96084e-05
2.14233e-05
2.56908e-05
2.63454e-05
2.42919e-05
1.92253e-05
1.54697e-05
1.18435e-05
8.81072e-06
6.95824e-06
5.60159e-06
5.46525e-06
6.89382e-06
1.0474e-05
2.335e-05
3.56636e-05
5.26694e-05
6.66468e-05
7.8421e-05
9.2794e-05
0.000105538
0.000108417
0.000111079
0.0002692
0.000106071
0.00010368
0.00010118
9.76912e-05
0.000216324
0.00021114
9.5107e-05
0.000100525
0.000112818
0.000135033
0.000160069
0.00016341
0.000154623
0.000147978
0.00014093
0.000126351
8.03573e-05
3.54759e-06
2.34402e-07
3.59898e-08
6.59938e-09
1.74133e-09
3.91121e-10
2.0684e-10
1.46116e-10
0
0
0
0
0
0
0
0
0
0
0
0
0
0
0
0
0
0
0
0
0
0
0
0
0
0
0
0
0
0
0
0
0
0
0
0
0
0
0
0
0
0
0
0
0
0
0
0
1.87174e-05
2.13891e-05
2.19921e-05
2.0575e-05
1.82911e-05
1.56387e-05
1.29512e-05
9.51906e-06
8.9437e-06
6.67897e-06
5.68095e-06
4.78699e-06
4.0406e-06
3.45764e-06
3.14399e-06
3.99472e-06
6.41504e-06
1.12841e-05
2.51584e-05
3.86134e-05
0.000145654
7.50289e-05
8.93592e-05
9.75963e-05
0.00010165
0.000103504
9.97746e-05
9.26376e-05
8.85072e-05
8.53716e-05
8.35945e-05
0.000197491
8.49784e-05
8.66425e-05
9.41703e-05
0.000112602
0.000174297
0.000142996
0.000165367
0.000152622
0.000144158
0.000242051
0.000111401
5.42695e-05
1.67283e-06
1.65735e-07
2.56846e-08
5.06294e-09
1.03727e-09
3.04704e-10
2.02994e-10
6.79561e-11
0
0
0
0
0
0
0
0
0
0
0
0
0
0
0
0
0
0
0
0
0
0
0
0
0
0
0
0
0
0
0
0
0
0
0
0
0
0
0
0
0
0
0
0
0
0
0
0
2.05698e-05
2.35301e-05
2.34012e-05
2.05393e-05
1.53876e-05
9.86608e-06
6.62535e-06
4.8579e-06
3.60426e-06
3.04177e-06
2.53626e-06
2.27784e-06
2.1047e-06
1.95337e-06
1.85728e-06
2.2083e-06
3.91445e-06
7.48555e-06
1.65762e-05
2.83782e-05
4.52431e-05
6.65083e-05
8.69664e-05
9.05533e-05
9.18604e-05
0.000226557
0.000217062
7.95616e-05
7.46765e-05
7.18231e-05
7.16031e-05
7.32412e-05
7.51663e-05
7.95495e-05
9.11185e-05
0.000112952
0.000126044
0.000136868
0.000149288
0.000149631
0.00013865
0.000127864
9.7238e-05
6.49271e-05
8.93612e-07
1.18341e-07
1.84482e-08
3.72681e-09
6.76624e-10
2.53504e-10
1.30863e-10
0
0
0
0
0
0
0
0
0
0
0
0
0
0
0
0
0
0
0
0
0
0
0
0
0
0
0
0
0
0
0
0
0
0
0
0
0
0
0
0
0
0
0
0
0
0
0
0
0
2.2735e-05
2.41677e-05
2.21655e-05
1.7671e-05
1.17853e-05
7.50503e-06
3.85682e-06
2.53887e-06
1.70609e-06
1.25108e-06
1.09652e-06
1.06102e-06
1.06452e-06
1.07719e-06
1.08696e-06
1.30242e-06
2.28873e-06
4.9651e-06
1.02683e-05
2.25494e-05
3.38342e-05
5.22845e-05
0.000171478
7.69226e-05
7.81987e-05
7.46423e-05
7.11738e-05
6.72184e-05
6.21914e-05
5.99413e-05
6.09011e-05
6.32137e-05
6.68553e-05
0.000139319
0.000126487
0.000108487
0.000115896
0.000129114
0.000144592
0.000144505
0.000131476
0.000122073
7.78155e-05
1.66298e-05
5.51542e-07
8.55861e-08
1.37899e-08
2.69305e-09
5.11085e-10
2.14601e-10
1.05833e-10
0
0
0
0
0
0
0
0
0
0
0
0
0
0
0
0
0
0
0
0
0
0
0
0
0
0
0
0
0
0
0
0
0
0
0
0
0
0
0
0
0
0
0
0
0
0
0
0
0
2.4118e-05
2.14319e-05
1.6719e-05
1.44063e-05
9.61474e-06
5.00457e-06
2.61618e-06
1.29454e-06
7.34562e-07
5.47736e-07
5.18083e-07
5.303e-07
5.58435e-07
6.3388e-07
7.39008e-07
8.8291e-07
1.37391e-06
3.09411e-06
7.01013e-06
1.66008e-05
2.72721e-05
3.91835e-05
5.32451e-05
6.13281e-05
0.000151786
6.01356e-05
5.66506e-05
0.00013633
5.12112e-05
4.93809e-05
5.11199e-05
5.43015e-05
5.93841e-05
6.85063e-05
8.72764e-05
9.91603e-05
0.000103176
0.000121102
0.00013897
0.000140426
0.000128601
0.000108801
5.61281e-05
2.82492e-05
3.84421e-07
6.22271e-08
1.07423e-08
1.90196e-09
4.04765e-10
1.65568e-10
2.95154e-31
0
0
0
0
0
0
0
0
0
0
0
0
0
0
0
0
0
0
0
0
0
0
0
0
0
0
0
0
0
0
0
0
0
0
0
0
0
0
0
0
0
0
0
0
0
0
0
0
0
2.23062e-05
1.54117e-05
1.2786e-05
9.73246e-06
6.20325e-06
3.08968e-06
1.38863e-06
6.98759e-07
3.43755e-07
2.79188e-07
2.82194e-07
2.96671e-07
3.41814e-07
4.42677e-07
5.58045e-07
6.78079e-07
9.32865e-07
1.87922e-06
4.5784e-06
1.05713e-05
3.89471e-05
3.00172e-05
3.87636e-05
4.6979e-05
0.000114552
4.70198e-05
4.39775e-05
4.40923e-05
4.0965e-05
3.99598e-05
4.23812e-05
4.59821e-05
5.20063e-05
6.29285e-05
7.84987e-05
8.49868e-05
9.11606e-05
0.000113761
0.000132345
0.000129779
0.000241745
9.56339e-05
3.58711e-05
3.89779e-06
2.66183e-07
4.34067e-08
8.08647e-09
1.30466e-09
3.16733e-10
1.38379e-10
0
0
0
0
0
0
0
0
0
0
0
0
0
0
0
0
0
0
0
0
0
0
0
0
0
0
0
0
0
0
0
0
0
0
0
0
0
0
0
0
0
0
0
0
0
0
0
0
0
0
1.50854e-05
8.3031e-06
6.33525e-06
4.65914e-06
2.9806e-06
1.65442e-06
8.35006e-07
4.0078e-07
1.95171e-07
1.62755e-07
1.76764e-07
1.88358e-07
2.39902e-07
3.25129e-07
4.36335e-07
5.55489e-07
7.18049e-07
1.19639e-06
2.81666e-06
6.62694e-06
1.48844e-05
2.42006e-05
2.85351e-05
3.4158e-05
3.67305e-05
3.58618e-05
7.99389e-05
3.35634e-05
3.20048e-05
3.1671e-05
3.47715e-05
3.83302e-05
4.60146e-05
5.52621e-05
6.44725e-05
6.96722e-05
8.17468e-05
0.00010838
0.00012385
0.000117168
0.000102744
7.97958e-05
2.02908e-05
1.7297e-06
1.82193e-07
3.01336e-08
5.85075e-09
8.74012e-10
2.55157e-10
8.81277e-11
0
0
0
0
0
0
0
0
0
0
0
0
0
0
0
0
0
0
0
0
0
0
0
0
0
0
0
0
0
0
0
0
0
0
0
0
0
0
0
0
0
0
0
0
0
0
0
0
0
0
7.37224e-06
2.60683e-06
1.83108e-06
1.57829e-06
1.16896e-06
7.1854e-07
3.97611e-07
2.12111e-07
1.08106e-07
1.10578e-07
1.25101e-07
1.35083e-07
1.788e-07
2.47953e-07
3.47907e-07
4.65433e-07
5.94151e-07
8.56014e-07
1.71461e-06
3.9058e-06
7.90358e-06
1.61967e-05
2.15271e-05
2.43024e-05
2.69841e-05
5.807e-05
5.52867e-05
2.5013e-05
2.41643e-05
2.44591e-05
5.21738e-05
3.20097e-05
4.15819e-05
4.61206e-05
4.99714e-05
5.86541e-05
7.54062e-05
0.000104755
0.000112724
0.00010427
8.97017e-05
6.01927e-05
9.81507e-06
8.08765e-06
1.25965e-07
2.07168e-08
4.33011e-09
6.60689e-10
1.9217e-10
2.12788e-12
3.91982e-18
0
0
0
0
0
0
0
0
0
0
0
0
0
0
0
0
0
0
0
0
0
0
0
0
0
0
0
0
0
0
0
0
0
0
0
0
0
0
0
0
0
0
0
0
0
0
0
0
0
2.91507e-07
2.32146e-07
2.20192e-07
2.26433e-07
2.13484e-07
1.74049e-07
1.25082e-07
8.28287e-08
5.64873e-08
7.28698e-08
8.61446e-08
9.67972e-08
1.30853e-07
1.82967e-07
2.63184e-07
3.67665e-07
4.81153e-07
6.1933e-07
9.10184e-07
1.6302e-06
3.02264e-06
5.86347e-06
1.10002e-05
1.50693e-05
1.57106e-05
1.5641e-05
1.50609e-05
1.4622e-05
1.43054e-05
1.48831e-05
1.76248e-05
2.3264e-05
2.41505e-05
2.66484e-05
3.31255e-05
4.42064e-05
6.61552e-05
9.79214e-05
9.27537e-05
8.40179e-05
6.81197e-05
3.04435e-05
1.94529e-05
3.59423e-07
6.2432e-08
1.01964e-08
1.74907e-09
3.63459e-10
3.00583e-18
0
0
0
0
0
0
0
0
0
0
0
0
0
0
0
0
0
0
0
0
0
0
0
0
0
0
0
0
0
0
0
0
0
0
0
0
0
0
0
0
0
0
0
0
0
0
0
0
0
0
0
2.14286e-08
1.95925e-08
2.04004e-08
2.10877e-08
2.53636e-08
2.9755e-08
3.04828e-08
2.80052e-08
3.4506e-08
4.92626e-08
6.19106e-08
7.0367e-08
9.03597e-08
1.26789e-07
1.80744e-07
2.55309e-07
3.41148e-07
4.25153e-07
5.19408e-07
6.79439e-07
1.00052e-06
1.80963e-06
3.21262e-06
5.115e-06
6.97613e-06
7.7758e-06
7.78401e-06
7.24912e-06
6.56465e-06
6.59033e-06
7.94224e-06
1.03489e-05
1.13345e-05
1.48147e-05
2.10284e-05
3.35255e-05
5.89902e-05
7.95927e-05
6.8333e-05
5.96223e-05
3.80662e-05
2.9554e-05
8.25151e-06
1.6674e-07
2.67641e-08
4.73067e-09
7.84273e-10
7.13695e-11
0
0
0
0
0
0
0
0
0
0
0
0
0
0
0
0
0
0
0
0
0
0
0
0
0
0
0
0
0
0
0
0
0
0
0
0
0
0
0
0
0
0
0
0
0
0
0
0
0
0
0
0
1.65137e-09
2.91066e-09
3.01864e-09
3.75995e-09
5.00208e-09
7.44145e-09
1.10892e-08
1.51345e-08
2.43806e-08
3.58975e-08
4.62049e-08
5.40105e-08
6.35037e-08
8.96441e-08
1.25996e-07
1.73855e-07
2.2907e-07
2.80326e-07
3.19683e-07
3.54152e-07
3.96139e-07
5.22319e-07
8.29871e-07
1.31838e-06
1.83576e-06
2.22089e-06
2.39583e-06
2.28371e-06
2.43129e-06
2.70777e-06
3.51863e-06
4.76542e-06
6.66071e-06
9.3806e-06
1.47826e-05
2.72152e-05
5.4983e-05
5.33823e-05
4.60044e-05
3.37603e-05
1.39134e-05
1.874e-06
3.88113e-07
7.00567e-08
1.15208e-08
2.07733e-09
4.34424e-10
1.48359e-30
0
0
0
0
0
0
0
0
0
0
0
0
0
0
0
0
0
0
0
0
0
0
0
0
0
0
0
0
0
0
0
0
0
0
0
0
0
0
0
0
0
0
0
0
0
0
0
0
0
0
0
0
2.27789e-10
6.33287e-10
1.02148e-09
1.63465e-09
3.13718e-09
5.84919e-09
9.51063e-09
1.3181e-08
1.9513e-08
2.75647e-08
3.46077e-08
4.01972e-08
4.71971e-08
6.34085e-08
9.00545e-08
1.21925e-07
1.56812e-07
1.87592e-07
2.06922e-07
2.13188e-07
2.1106e-07
2.14544e-07
2.31987e-07
2.88014e-07
3.84099e-07
5.4278e-07
6.79731e-07
8.26455e-07
1.05347e-06
1.33111e-06
1.89057e-06
2.6517e-06
4.32755e-06
6.6641e-06
1.1779e-05
2.44422e-05
3.99048e-05
3.35693e-05
2.56038e-05
1.25231e-05
2.69705e-06
6.12912e-07
1.6165e-07
2.85208e-08
5.35266e-09
9.72827e-10
2.45012e-10
0
0
0
0
0
0
0
0
0
0
0
0
0
0
0
0
0
0
0
0
0
0
0
0
0
0
0
0
0
0
0
0
0
0
0
0
0
0
0
0
0
0
0
0
0
0
0
0
0
0
0
0
0
0
2.78203e-10
8.37883e-10
2.12258e-09
4.52116e-09
8.0444e-09
1.24598e-08
1.59798e-08
1.71273e-08
2.2003e-08
2.57813e-08
2.85685e-08
3.53363e-08
4.73072e-08
6.55721e-08
8.92918e-08
1.13945e-07
1.35193e-07
1.49456e-07
1.54233e-07
1.49768e-07
1.39625e-07
1.3006e-07
1.30665e-07
1.47307e-07
1.85268e-07
2.36891e-07
3.10593e-07
4.46011e-07
6.60276e-07
1.09069e-06
1.73612e-06
3.21131e-06
5.39865e-06
1.06639e-05
2.40348e-05
2.1947e-05
1.81214e-05
1.01441e-05
2.47264e-06
6.11426e-07
2.71927e-07
6.27044e-08
1.07435e-08
1.94427e-09
4.74021e-10
7.22364e-18
0
0
0
0
0
0
0
0
0
0
0
0
0
0
0
0
0
0
0
0
0
0
0
0
0
0
0
0
0
0
0
0
0
0
0
0
0
0
0
0
0
0
0
0
0
0
0
0
0
0
0
0
0
0
1.25064e-10
1.80481e-09
4.61959e-09
9.09467e-09
1.34633e-08
1.5451e-08
1.82738e-08
1.58134e-08
1.739e-08
1.86651e-08
2.36777e-08
3.41928e-08
4.88141e-08
6.6497e-08
8.84173e-08
1.09528e-07
1.26944e-07
1.37401e-07
1.38352e-07
1.30232e-07
1.14699e-07
9.55146e-08
7.76584e-08
6.4977e-08
6.26742e-08
6.46237e-08
9.05627e-08
1.79816e-07
3.86309e-07
7.81517e-07
1.44137e-06
2.7872e-06
5.50637e-06
1.05386e-05
1.32144e-05
1.09631e-05
6.73429e-06
2.90333e-06
5.18751e-07
2.92763e-07
9.60435e-08
2.0658e-08
4.1341e-09
7.813e-10
7.55936e-11
0
0
0
0
0
0
0
0
0
0
0
0
0
0
0
0
0
0
0
0
0
0
0
0
0
0
0
0
0
0
0
0
0
0
0
0
0
0
0
0
0
0
0
0
0
0
0
0
0
0
0
0
0
0
0
9.35954e-11
2.68535e-09
6.90323e-09
1.27444e-08
1.61759e-08
1.7851e-08
1.44275e-08
1.22412e-08
1.24884e-08
1.7421e-08
2.65786e-08
3.83158e-08
5.45237e-08
7.36379e-08
9.43452e-08
1.14437e-07
1.29976e-07
1.37949e-07
1.36055e-07
1.24332e-07
1.04543e-07
7.97374e-08
5.33573e-08
2.93397e-08
1.73369e-08
1.59714e-08
2.59929e-08
1.12177e-07
3.2388e-07
6.79119e-07
1.3782e-06
2.42919e-06
3.91119e-06
5.88955e-06
6.51456e-06
4.00015e-06
1.47609e-06
6.59287e-07
2.25582e-07
1.05025e-07
3.24697e-08
6.86252e-09
1.34622e-09
3.91295e-10
0
0
0
0
0
0
0
0
0
0
0
0
0
0
0
0
0
0
0
0
0
0
0
0
0
0
0
0
0
0
0
0
0
0
0
0
0
0
0
0
0
0
0
0
0
0
0
0
0
0
0
0
0
0
0
0
0
1.05811e-09
2.49005e-09
5.2069e-09
7.39792e-09
7.24837e-09
5.20264e-09
4.69484e-09
8.78123e-09
1.64806e-08
2.75047e-08
4.01744e-08
5.80148e-08
8.11771e-08
1.04509e-07
1.26242e-07
1.4251e-07
1.49116e-07
1.44103e-07
1.28404e-07
1.04233e-07
7.56571e-08
4.70224e-08
2.41088e-08
1.26683e-08
1.21869e-08
1.86933e-08
1.43091e-07
3.47863e-07
6.14864e-07
8.74086e-07
1.39308e-06
2.16008e-06
2.85203e-06
2.52541e-06
9.81085e-07
2.85285e-07
2.6996e-07
8.9996e-08
3.56239e-08
9.30412e-09
2.25594e-09
6.13676e-10
2.13833e-10
0
0
0
0
0
0
0
0
0
0
0
0
0
0
0
0
0
0
0
0
0
0
0
0
0
0
0
0
0
0
0
0
0
0
0
0
0
0
0
0
0
0
0
0
0
0
0
0
0
0
0
0
0
0
0
0
0
0
1.09849e-09
2.67264e-09
3.76046e-09
5.22814e-09
3.40668e-09
1.19664e-09
4.07655e-09
1.24191e-08
2.3188e-08
3.61087e-08
5.82563e-08
9.04824e-08
1.18754e-07
1.42712e-07
1.59285e-07
1.63809e-07
1.55201e-07
1.34632e-07
1.0602e-07
7.38393e-08
4.31325e-08
1.96687e-08
8.60025e-09
8.65978e-09
6.50965e-08
1.92877e-07
3.25881e-07
3.87986e-07
4.82422e-07
7.08792e-07
9.14578e-07
1.05818e-06
6.84755e-07
2.53851e-07
1.49846e-07
1.12015e-07
3.44508e-08
9.83324e-09
2.95781e-09
7.61133e-10
3.06865e-10
0
0
0
0
0
0
0
0
0
0
0
0
0
0
0
0
0
0
0
0
0
0
0
0
0
0
0
0
0
0
0
0
0
0
0
0
0
0
0
0
0
0
0
0
0
0
0
0
0
0
0
0
0
0
0
0
0
0
0
3.49645e-10
9.53173e-10
2.25963e-09
3.41815e-09
2.72272e-09
9.04726e-10
1.5918e-09
7.23873e-09
1.61622e-08
3.0436e-08
5.53255e-08
9.26673e-08
1.27219e-07
1.55298e-07
1.72805e-07
1.76172e-07
1.64464e-07
1.39959e-07
1.07966e-07
7.33683e-08
4.15553e-08
1.77028e-08
9.92529e-09
4.10167e-08
1.18146e-07
1.77482e-07
1.87517e-07
1.7573e-07
2.22502e-07
2.55838e-07
3.10937e-07
3.05412e-07
2.52366e-07
1.55138e-07
7.39086e-08
4.29372e-08
1.12728e-08
3.2395e-09
9.03465e-10
3.45266e-10
2.80119e-18
0
0
0
0
0
0
0
0
0
0
0
0
0
0
0
0
0
0
0
0
0
0
0
0
0
0
0
0
0
0
0
0
0
0
0
0
0
0
0
0
0
0
0
0
0
0
0
0
0
0
0
0
0
0
0
0
0
0
0
0
3.40565e-10
9.13186e-10
1.8773e-09
2.06893e-09
7.02288e-10
7.46814e-10
3.3335e-09
1.02824e-08
2.31342e-08
4.74287e-08
8.65027e-08
1.26849e-07
1.59622e-07
1.79432e-07
1.83359e-07
1.70126e-07
1.44106e-07
1.10829e-07
7.59202e-08
4.53346e-08
2.80665e-08
3.05916e-08
5.43243e-08
8.36316e-08
9.47585e-08
9.33058e-08
1.06634e-07
1.38011e-07
1.53307e-07
2.10351e-07
1.67851e-07
1.69776e-07
8.7635e-08
3.48642e-08
1.4081e-08
3.94435e-09
1.00613e-09
4.0332e-10
1.11826e-17
0
0
0
0
0
0
0
0
0
0
0
0
0
0
0
0
0
0
0
0
0
0
0
0
0
0
0
0
0
0
0
0
0
0
0
0
0
0
0
0
0
0
0
0
0
0
0
0
0
0
0
0
0
0
0
0
0
0
0
0
0
0
4.57466e-10
9.04253e-10
1.34217e-09
5.09827e-10
5.27479e-10
1.26019e-09
5.88434e-09
1.64359e-08
3.69215e-08
7.35414e-08
1.16796e-07
1.53848e-07
1.77496e-07
1.83108e-07
1.7147e-07
1.46623e-07
1.15331e-07
8.44786e-08
5.88695e-08
4.2407e-08
3.96534e-08
4.72316e-08
5.48962e-08
6.32518e-08
8.13145e-08
1.1488e-07
1.68809e-07
1.38833e-07
1.32066e-07
1.15762e-07
9.12913e-08
4.00675e-08
1.29479e-08
4.51207e-09
1.23376e-09
5.05829e-10
7.2367e-11
0
0
0
0
0
0
0
0
0
0
0
0
0
0
0
0
0
0
0
0
0
0
0
0
0
0
0
0
0
0
0
0
0
0
0
0
0
0
0
0
0
0
0
0
0
0
0
0
0
0
0
0
0
0
0
0
0
0
0
0
0
0
0
0
0
8.30142e-10
3.10286e-10
2.9238e-10
6.46394e-10
2.70007e-09
1.02251e-08
2.54968e-08
5.58923e-08
9.85768e-08
1.38087e-07
1.65205e-07
1.7524e-07
1.67436e-07
1.4721e-07