/*--------------------------------*- C++ -*----------------------------------*\
  =========                 |
  \\      /  F ield         | OpenFOAM: The Open Source CFD Toolbox
   \\    /   O peration     | Website:  https://openfoam.org
    \\  /    A nd           | Version:  6
     \\/     M anipulation  |
\*---------------------------------------------------------------------------*/
FoamFile
{
    version     2.0;
    format      ascii;
    class       volScalarField;
    location    "0.005";
    object      CH3CHO;
}
// * * * * * * * * * * * * * * * * * * * * * * * * * * * * * * * * * * * * * //

dimensions      [0 0 0 0 0 0 0];

internalField   nonuniform List<scalar> 
8000
(
8.06958e-11
1.42055e-10
1.89917e-10
5.16502e-10
4.71012e-09
6.74617e-08
6.07451e-07
2.19465e-06
3.87411e-06
5.32347e-06
6.68657e-06
7.96877e-06
9.22632e-06
1.01298e-05
1.02296e-05
1.01749e-05
1.11144e-05
1.36306e-05
1.77586e-05
2.81954e-05
6.03075e-05
0.00012484
0.000158198
0.000186981
0.000250357
0.000401314
0.000510901
0.000437002
0.000295089
0.000191648
0.000143231
0.000137884
0.000156345
0.000233115
0.000339984
0.000467798
0.000611281
0.000786314
0.000921171
0.00105448
0.00120254
0.00117438
0.000886768
0.000579766
0.000240074
8.77227e-05
5.86885e-05
7.47842e-05
9.19279e-05
3.39828e-05
4.41691e-06
3.7881e-07
2.02746e-08
0
0
0
0
0
0
0
0
0
0
0
0
0
0
0
0
0
0
0
0
0
0
0
0
0
0
0
0
0
0
0
0
0
0
0
0
0
0
0
0
0
0
0
0
0
0
0
1.50682e-10
3.61928e-10
4.04117e-10
1.32895e-09
1.08203e-08
1.46282e-07
1.24753e-06
3.66014e-06
6.02316e-06
8.26574e-06
1.01335e-05
1.14956e-05
1.27509e-05
1.40673e-05
1.39161e-05
1.29538e-05
1.33575e-05
1.57437e-05
1.96285e-05
3.00034e-05
6.36804e-05
0.000144463
0.000686481
0.000221002
0.000303364
0.000532871
0.000646809
0.000484441
0.000313425
0.000188662
0.000137533
0.000133925
0.000155819
0.000238962
0.000356255
0.000507419
0.000629003
0.000847181
0.000933039
0.00118441
0.00132165
0.00118542
0.000893928
0.000586195
0.000247939
9.88961e-05
6.98838e-05
7.83273e-05
0.000170517
8.41141e-05
1.46681e-05
6.32545e-07
2.37361e-08
0
0
0
0
0
0
0
0
0
0
0
0
0
0
0
0
0
0
0
0
0
0
0
0
0
0
0
0
0
0
0
0
0
0
0
0
0
0
0
0
0
0
0
0
0
0
0
1.24586e-10
1.77396e-06
4.8776e-10
4.10972e-06
4.87684e-08
4.76561e-07
2.62003e-06
6.18132e-06
2.82956e-05
1.47059e-05
1.72658e-05
1.86724e-05
1.94955e-05
2.20745e-05
7.42024e-05
5.79247e-05
1.75873e-05
2.09376e-05
2.52988e-05
3.4312e-05
5.94102e-05
0.000115412
0.000166114
0.000184476
0.000227625
0.000444646
0.00355235
0.000527073
0.000267618
0.000156641
0.000121897
0.000127549
0.000157717
0.000253936
0.00039406
0.000552936
0.000696592
0.000878336
0.00102765
0.00121212
0.0013505
0.00131862
0.000977591
0.000626954
0.000253398
0.000114381
0.000993983
7.38993e-05
0.000226587
4.68838e-05
6.17666e-06
3.61171e-07
9.50688e-19
0
0
0
0
0
0
0
0
0
0
0
0
0
0
0
0
0
0
0
0
0
0
0
0
0
0
0
0
0
0
0
0
0
0
0
0
0
0
0
0
0
0
0
0
0
0
0
1.38782e-10
9.78609e-10
2.03456e-08
1.75188e-07
7.09876e-07
1.64596e-06
4.01032e-06
8.18599e-06
1.48089e-05
7.27912e-05
3.6546e-05
3.87431e-05
3.80039e-05
8.90849e-05
2.05419e-05
1.92624e-05
2.20778e-05
3.4965e-05
0.000121734
4.64934e-05
6.5625e-05
0.000254148
0.000154844
0.00017146
0.000185361
0.000230629
0.000293395
0.000260768
0.000180087
0.000738162
0.000113583
0.00012859
0.000168085
0.000280154
0.000454294
0.000628456
0.000787928
0.000917768
0.00106111
0.00136085
0.0013877
0.00135501
0.00100324
0.000645558
0.000269357
0.000107521
6.26077e-05
4.64875e-05
4.56594e-05
1.75092e-05
1.86195e-06
1.69259e-07
1.57163e-26
0
0
0
0
0
0
0
0
0
0
0
0
0
0
0
0
0
0
0
0
0
0
0
0
0
0
0
0
0
0
0
0
0
0
0
0
0
0
0
0
0
0
0
0
0
0
0
1.63489e-10
1.26271e-09
7.91008e-06
1.37455e-06
1.58716e-05
3.97361e-06
5.44758e-06
1.74404e-05
1.66881e-05
9.39949e-05
0.000453304
0.000362718
0.000220932
3.29258e-05
2.33459e-05
7.65549e-05
3.15393e-05
0.000148562
6.27111e-05
6.84492e-05
0.000205964
0.000264262
0.000146517
0.000666657
0.00080877
0.000187952
0.000216772
0.000473939
0.000274526
0.000154901
0.000122596
0.000142302
0.000190872
0.000305546
0.000540997
0.00392379
0.000894839
0.00102805
0.00132526
0.00141019
0.00142919
0.0013942
0.00115567
0.000702677
0.000288714
0.000104948
5.28779e-05
3.27748e-05
2.12749e-05
6.71769e-06
8.0224e-07
7.89338e-08
0
0
0
0
0
0
0
0
0
0
0
0
0
0
0
0
0
0
0
0
0
0
0
0
0
0
0
0
0
0
0
0
0
0
0
0
0
0
0
0
0
0
0
0
0
0
0
0
1.68555e-10
6.31032e-10
5.9449e-07
1.05735e-05
7.2019e-06
1.52347e-05
6.73929e-06
9.05273e-06
1.38298e-05
2.19599e-05
3.73338e-05
3.84096e-05
3.04203e-05
2.36635e-05
2.31562e-05
2.99571e-05
5.00316e-05
0.000212822
0.000109708
0.000299835
0.000113318
0.000321427
0.00015343
0.000708116
0.000824008
0.000197119
0.000187519
0.000921675
0.00062313
0.000125631
0.000120708
0.000165262
0.00138364
0.000350861
0.00056931
0.000796526
0.000932015
0.00118433
0.00136789
0.00146238
0.00147028
0.00143102
0.0045632
0.000726767
0.000311506
0.000112936
5.8538e-05
3.23217e-05
1.50272e-05
4.75708e-06
1.10538e-06
2.50268e-07
0
0
0
0
0
0
0
0
0
0
0
0
0
0
0
0
0
0
0
0
0
0
0
0
0
0
0
0
0
0
0
0
0
0
0
0
0
0
0
0
0
0
0
0
0
0
0
0
2.15753e-10
2.31407e-09
1.5618e-07
1.28407e-06
3.33469e-06
4.86178e-06
1.61235e-05
1.06848e-05
1.3986e-05
1.68942e-05
5.46721e-05
6.72394e-05
6.25573e-05
2.30623e-05
2.85213e-05
4.34942e-05
6.64232e-05
0.000110411
0.000568063
0.000155243
0.000465274
0.000148136
0.000533566
0.000203245
0.000366439
0.000238641
0.00019063
0.000156218
0.00012265
0.000115399
0.000138901
0.000196191
0.000276447
0.000407635
0.000612565
0.000874645
0.0010379
0.00132597
0.00139789
0.00476436
0.0015058
0.00146344
0.0013117
0.00073958
0.000339436
0.000131211
7.38634e-05
4.79493e-05
2.37249e-05
7.66901e-06
2.45148e-06
4.56515e-07
2.60718e-08
0
0
0
0
0
0
0
0
0
0
0
0
0
0
0
0
0
0
0
0
0
0
0
0
0
0
0
0
0
0
0
0
0
0
0
0
0
0
0
0
0
0
0
0
0
0
0
2.08714e-06
3.22608e-06
1.78313e-07
1.65762e-06
3.51687e-06
1.3788e-05
1.04348e-05
1.70662e-05
7.18961e-05
2.09041e-05
2.02367e-05
2.0458e-05
2.25768e-05
3.29391e-05
0.000122461
0.000170413
0.000285538
0.000509053
0.000245017
0.000736776
0.000191074
0.000186618
0.000628796
0.000217826
0.000230757
0.000847347
0.000177535
0.000139636
0.000121066
0.000144744
0.000210252
0.000257964
0.00034535
0.00047735
0.000702725
0.000927393
0.00119899
0.00135946
0.00141227
0.00150733
0.00153059
0.00149652
0.00131723
0.000791392
0.000373819
0.000155229
9.49913e-05
0.000152382
3.51283e-05
6.84326e-07
6.25816e-07
2.88197e-07
2.32886e-08
0
0
0
0
0
0
0
0
0
0
0
0
0
0
0
0
0
0
0
0
0
0
0
0
0
0
0
0
0
0
0
0
0
0
0
0
0
0
0
0
0
0
0
0
0
0
0
2.1548e-06
4.79629e-06
7.87164e-07
4.75418e-06
1.1441e-05
9.26744e-06
2.71985e-05
2.68089e-05
0.000170259
3.43027e-05
8.79621e-05
8.06477e-05
3.22439e-05
4.43846e-05
5.89407e-05
0.000205844
0.000327802
0.000651849
0.000371048
0.000269026
0.000232096
0.000674305
0.000221459
0.000792305
0.000816513
0.000217288
0.000174189
0.000139793
0.000144949
0.000212974
0.000974757
0.00118154
0.000437432
0.000583804
0.000852047
0.00104917
0.00135038
0.00138109
0.00141082
0.00149437
0.00481847
0.00480174
0.00132555
0.000792694
0.00256511
0.00053508
0.000117407
6.00167e-05
2.87711e-05
9.30778e-06
1.99161e-06
1.96698e-07
2.36145e-08
0
0
0
0
0
0
0
0
0
0
0
0
0
0
0
0
0
0
0
0
0
0
0
0
0
0
0
0
0
0
0
0
0
0
0
0
0
0
0
0
0
0
0
0
0
0
0
3.27437e-10
4.42452e-06
7.60723e-06
1.06005e-05
8.31779e-06
2.4159e-05
1.76447e-05
2.56638e-05
3.87043e-05
0.000110964
4.3509e-05
5.19995e-05
0.000139338
0.000190602
0.000340202
0.000273907
0.000123119
0.000219444
0.000339967
0.000310678
0.000278191
0.000300082
0.000262145
0.000259256
0.000245931
0.000209379
0.00017285
0.000146628
0.000156504
0.00102401
0.00030315
0.000406554
0.00245155
0.000653682
0.000917186
0.00447765
0.00139268
0.00139088
0.00139456
0.00146017
0.00478419
0.00150457
0.00132306
0.000785891
0.000336261
0.000156407
0.00087904
5.1898e-05
2.5916e-05
8.71202e-06
2.75329e-06
1.98559e-07
2.62057e-08
0
0
0
0
0
0
0
0
0
0
0
0
0
0
0
0
0
0
0
0
0
0
0
0
0
0
0
0
0
0
0
0
0
0
0
0
0
0
0
0
0
0
0
0
0
0
0
2.6931e-06
1.52788e-06
5.25407e-06
9.34286e-06
1.42061e-05
4.7969e-05
7.55164e-05
0.000108344
6.21036e-05
6.98824e-05
8.02392e-05
0.00019538
0.000100598
0.000255393
0.000115699
0.000120564
0.000141968
0.000853327
0.000600272
0.000358525
0.000305038
0.000617418
0.000283291
0.000508166
0.000606349
0.000214507
0.000189267
0.000174079
0.000207322
0.00028694
0.00035389
0.00046104
0.0006129
0.000786959
0.0010117
0.00448185
0.00141288
0.00457457
0.00136543
0.00141145
0.00146514
0.00148498
0.00132004
0.000730183
0.000315521
0.000157989
9.16995e-05
4.4478e-05
2.02919e-05
6.75484e-07
1.52324e-06
2.00901e-07
3.54623e-08
2.59217e-08
0
0
0
0
0
0
0
0
0
0
0
0
0
0
0
0
0
0
0
0
0
0
0
0
0
0
0
0
0
0
0
0
0
0
0
0
0
0
0
0
0
0
0
0
0
0
1.38149e-07
8.69485e-06
1.55478e-05
5.58961e-05
3.57302e-05
0.000102131
0.000134559
8.82143e-05
0.000126173
0.000127195
0.00012932
0.000134084
0.000152841
0.000465444
0.000150416
0.000154167
0.000172629
0.000864675
0.000636459
0.000558767
0.000298611
0.000287985
0.000295848
0.000330569
0.000262983
0.000218554
0.000217775
0.00055226
0.00029647
0.00121058
0.000442061
0.000565807
0.000715696
0.00404517
0.00101457
0.00130074
0.00455981
0.0013578
0.0013238
0.00135683
0.00140738
0.00147312
0.00456563
0.000713047
0.000293426
0.000368349
0.000618996
0.000119106
1.46488e-05
6.70931e-06
4.31962e-07
2.43147e-07
6.86865e-08
3.16975e-08
1.2853e-08
0
0
0
0
0
0
0
0
0
0
0
0
0
0
0
0
0
0
0
0
0
0
0
0
0
0
0
0
0
0
0
0
0
0
0
0
0
0
0
0
0
0
0
0
0
6.2448e-06
3.24067e-05
6.16004e-05
0.000156924
0.000229277
0.000289617
0.000130108
0.00052311
0.000292655
0.000709606
0.000556609
0.000523367
0.000173958
0.000533257
0.000170812
0.000182643
0.000788965
0.000256973
0.000321169
0.000505783
0.000318311
0.000290525
0.00031354
0.00052325
0.000270449
0.000240495
0.000244428
0.00082608
0.000329217
0.000438886
0.000532766
0.000664147
0.000863492
0.00090758
0.0009924
0.00124862
0.00446691
0.00446626
0.00127394
0.00130119
0.00135314
0.00469156
0.00453445
0.000689331
0.000269187
0.000422814
7.66032e-05
0.00010571
1.02988e-05
4.06332e-06
6.78835e-07
2.51275e-07
1.71498e-07
8.2211e-08
2.98166e-08
0
0
0
0
0
0
0
0
0
0
0
0
0
0
0
0
0
0
0
0
0
0
0
0
0
0
0
0
0
0
0
0
0
0
0
0
0
0
0
0
0
0
0
0
0
2.94435e-05
0.000337087
0.000372588
0.0004234
0.000158212
0.000757824
0.00072023
0.000204922
0.000269146
0.000263777
0.000247919
0.000222361
0.000206386
0.000195002
0.000189903
0.000199075
0.000239169
0.000677424
0.000330208
0.00039261
0.000856908
0.00031993
0.000311994
0.000324004
0.000628725
0.000301978
0.000900063
0.000338551
0.000412163
0.000562255
0.000674357
0.000808048
0.0041044
0.00096472
0.000953715
0.00107734
0.00122095
0.00433307
0.00121582
0.00124713
0.00129867
0.00140058
0.00113576
0.00062385
0.000257171
0.000115752
6.22238e-05
2.25068e-05
7.31154e-06
2.53509e-06
4.73831e-07
2.60388e-07
2.29907e-07
1.87354e-07
7.78033e-08
2.68981e-08
0
0
0
0
0
0
0
0
0
0
0
0
0
0
0
0
0
0
0
0
0
0
0
0
0
0
0
0
0
0
0
0
0
0
0
0
0
0
0
0
0
0
0
0
0.000342109
0.000860681
0.00105983
0.000566726
0.000244234
0.000413816
0.000259536
0.000537978
0.000453646
0.000432478
0.00106067
0.000431201
0.000621231
0.000286606
0.000473984
0.000230633
0.000233615
0.000263605
0.000300852
0.000405019
0.000838715
0.000533351
0.000301646
0.000326063
0.000354005
0.00161772
0.000368685
0.000381564
0.000481676
0.0036193
0.00374021
0.00400643
0.00414073
0.00410286
0.0040715
0.00408956
0.000868484
0.000858703
0.00424297
0.00105024
0.00442522
0.00135924
0.00440021
0.00350508
0.000231195
0.000725025
4.94369e-05
1.85961e-05
6.18485e-06
2.24012e-06
4.25547e-07
2.58597e-07
2.434e-07
2.32149e-07
1.65354e-07
1.39229e-08
0
0
0
0
0
0
0
0
0
0
0
0
0
0
0
0
0
0
0
0
0
0
0
0
0
0
0
0
0
0
0
0
0
0
0
0
0
0
0
0
0
0
0
0
5.41441e-05
0.000290241
0.000362734
0.00247717
0.000480505
0.000518186
0.00026483
0.000307816
0.000676337
0.000662163
0.00139753
0.0025337
0.000569727
0.000384084
0.000271634
0.000212754
0.000203773
0.000225004
0.000272811
0.000418555
0.000277165
0.000261588
0.00029286
0.000361395
0.00164369
0.000410834
0.000417336
0.000452273
0.000524683
0.000676403
0.00366637
0.000828187
0.000837887
0.000791829
0.0007598
0.00388051
0.00384168
0.000701286
0.00404412
0.00419366
0.000892819
0.00449765
0.00425783
0.000512376
0.000214397
8.54874e-05
3.99289e-05
1.52825e-05
5.31068e-06
2.30095e-06
3.81676e-07
2.26034e-07
2.13046e-07
2.3581e-07
3.15284e-07
2.67885e-08
0
0
0
0
0
0
0
0
0
0
0
0
0
0
0
0
0
0
0
0
0
0
0
0
0
0
0
0
0
0
0
0
0
0
0
0
0
0
0
0
0
0
0
0
1.93073e-06
0.000194107
0.000226289
0.000361256
0.000569998
0.000377843
0.000254277
0.00026842
0.000430844
0.00318927
0.00135274
0.00447976
0.00309426
0.000449365
0.000281239
0.000206964
0.000187701
0.000200378
0.000254574
0.000249599
0.000223474
0.000224967
0.000266594
0.00139443
0.00106779
0.000420925
0.00159405
0.00220148
0.00253487
0.00291752
0.000610677
0.000696151
0.000683835
0.000687149
0.00353798
0.00344208
0.0034222
0.000547506
0.000627428
0.00403218
0.00416735
0.000908202
0.00404593
0.00044064
0.000819002
0.000711779
0.000171778
1.27962e-05
5.6067e-06
2.09054e-06
2.68633e-07
1.04195e-07
6.41806e-08
8.02592e-08
5.91277e-08
0
0
0
0
0
0
0
0
0
0
0
0
0
0
0
0
0
0
0
0
0
0
0
0
0
0
0
0
0
0
0
0
0
0
0
0
0
0
0
0
0
0
0
0
0
1.49713e-05
0.000119877
9.15332e-05
0.000129987
0.000288146
0.000990369
0.000165181
0.000166091
0.000281818
0.000421238
0.0008405
0.00414525
0.00384951
0.00255267
0.000201939
0.000160666
0.000396285
0.000172544
0.000439107
0.000200117
0.000181635
0.000678096
0.000212102
0.000248838
0.000309178
0.000318661
0.000313312
0.000321887
0.00034407
0.000407277
0.000521664
0.00346834
0.00346599
0.000525232
0.00315538
0.000412395
0.000398935
0.00042192
0.000488195
0.00061219
0.00402263
0.00411252
0.000631334
0.000358402
0.000566917
0.000555028
2.73205e-05
1.17726e-05
5.68253e-06
5.79032e-07
9.71843e-08
3.32418e-08
2.64963e-08
2.61426e-08
0
0
0
0
0
0
0
0
0
0
0
0
0
0
0
0
0
0
0
0
0
0
0
0
0
0
0
0
0
0
0
0
0
0
0
0
0
0
0
0
0
0
0
0
0
0
1.79146e-05
7.62655e-05
8.68924e-05
3.10322e-05
3.73216e-05
5.68305e-05
4.27694e-05
4.58319e-05
8.10159e-05
0.000112977
0.000157868
0.000160384
0.00138318
0.000637959
5.67111e-05
6.11703e-05
8.25334e-05
0.000122012
0.000150328
0.000153762
0.000142694
0.000140579
0.00015405
0.000181564
0.000200756
0.000859268
0.000210668
0.00101916
0.000232162
0.000305574
0.00237793
0.00266703
0.000441543
0.00291557
0.00242134
0.000294409
0.000294891
0.000348271
0.00302421
0.000483969
0.00372949
0.000633343
0.000491159
0.00238172
0.000485729
5.05151e-05
2.34569e-05
9.6411e-06
2.76709e-06
3.84494e-07
4.48199e-08
2.60769e-08
0
0
0
0
0
0
0
0
0
0
0
0
0
0
0
0
0
0
0
0
0
0
0
0
0
0
0
0
0
0
0
0
0
0
0
0
0
0
0
0
0
0
0
0
0
0
0
0
1.82816e-05
3.957e-05
9.35103e-05
0.000104793
4.73456e-05
1.91629e-05
1.62973e-05
1.22597e-05
8.99609e-06
1.13827e-05
1.78702e-05
2.0192e-05
1.57285e-05
9.34363e-06
9.43635e-06
8.91106e-06
2.87017e-05
6.58401e-05
9.67085e-05
0.000777159
0.000100882
0.000829727
0.000103247
0.000115327
0.000130087
0.000129757
0.000130786
0.000133737
0.000164055
0.00126093
0.0016921
0.000295022
0.00207282
0.00209493
0.000252153
0.000237934
0.00155839
0.000297914
0.00206177
0.000410443
0.000500525
0.00351042
0.000382345
0.00024739
0.000540695
3.97767e-05
2.0153e-05
7.58466e-06
1.77378e-06
3.46982e-07
6.68014e-08
2.61197e-08
0
0
0
0
0
0
0
0
0
0
0
0
0
0
0
0
0
0
0
0
0
0
0
0
0
0
0
0
0
0
0
0
0
0
0
0
0
0
0
0
0
0
0
0
0
0
0
0
1.83217e-05
2.20666e-05
4.20441e-05
7.90364e-05
0.000108084
9.01661e-05
7.5478e-05
6.02933e-05
4.43174e-05
3.9441e-05
3.37957e-05
2.77182e-05
2.06163e-05
1.25624e-05
6.05951e-06
2.39937e-06
5.7898e-06
0.000314102
4.71531e-05
6.39973e-05
0.000787487
6.37612e-05
6.78591e-05
7.44371e-05
7.99585e-05
8.05382e-05
0.00130284
9.3063e-05
0.000123055
0.00129631
0.000192795
0.000216602
0.000220322
0.000213447
0.000197525
0.000196328
0.000220694
0.000272179
0.00122833
0.00216168
0.000424779
0.000442615
0.00031963
0.00166398
0.000650892
3.24342e-05
1.70143e-05
6.35547e-06
2.29901e-06
4.15617e-07
2.03184e-07
4.45669e-08
0
0
0
0
0
0
0
0
0
0
0
0
0
0
0
0
0
0
0
0
0
0
0
0
0
0
0
0
0
0
0
0
0
0
0
0
0
0
0
0
0
0
0
0
0
0
0
0
1.83396e-05
1.87868e-05
2.21078e-05
3.4653e-05
6.60715e-05
9.52434e-05
0.000101813
9.92446e-05
8.85369e-05
7.38005e-05
5.9536e-05
4.55075e-05
3.21893e-05
1.998e-05
1.03032e-05
4.47249e-06
2.02723e-06
4.75983e-06
1.64646e-05
0.000422285
0.000465028
3.87711e-05
4.66307e-05
0.00116203
0.00113704
5.59018e-05
6.08168e-05
7.24655e-05
9.69219e-05
0.00164397
0.00174006
0.000157108
0.000156593
0.000153642
0.00152052
0.000156926
0.000208125
0.000823374
0.000911437
0.000321308
0.00036891
0.000354733
0.000264517
0.000180648
6.5291e-05
2.7928e-05
1.39088e-05
5.71625e-06
2.32689e-06
7.3797e-07
2.72973e-07
2.27302e-07
2.61949e-08
0
0
0
0
0
0
0
0
0
0
0
0
0
0
0
0
0
0
0
0
0
0
0
0
0
0
0
0
0
0
0
0
0
0
0
0
0
0
0
0
0
0
0
0
0
0
0
1.83567e-05
1.8287e-05
1.84423e-05
2.01044e-05
2.94204e-05
4.72522e-05
5.75409e-05
6.17594e-05
5.92313e-05
5.14167e-05
4.45074e-05
3.79912e-05
3.05411e-05
2.12948e-05
1.22856e-05
5.81682e-06
2.76808e-06
2.65428e-06
4.90596e-06
1.08801e-05
1.72805e-05
2.41578e-05
3.31499e-05
4.1127e-05
4.30687e-05
4.43606e-05
0.00114809
5.95934e-05
7.81863e-05
9.69116e-05
0.0001107
0.00183141
0.00185802
0.000122174
0.00012616
0.000142264
0.000178608
0.000238257
0.000268016
0.000289415
0.000315316
0.0003056
0.000217496
0.000147775
5.16232e-05
2.35778e-05
1.13322e-05
5.71772e-06
1.99526e-06
4.08725e-07
2.81129e-07
2.66591e-07
3.09841e-08
0
0
0
0
0
0
0
0
0
0
0
0
0
0
0
0
0
0
0
0
0
0
0
0
0
0
0
0
0
0
0
0
0
0
0
0
0
0
0
0
0
0
0
0
0
0
0
1.83517e-05
1.80814e-05
1.74854e-05
1.65062e-05
1.66821e-05
1.90617e-05
2.10777e-05
2.22533e-05
2.4231e-05
2.42998e-05
2.52542e-05
2.56749e-05
2.38575e-05
1.90587e-05
1.24294e-05
6.51777e-06
3.12581e-06
1.90089e-06
2.46839e-06
4.83015e-06
0.000299475
1.7533e-05
2.58094e-05
3.18343e-05
3.51412e-05
3.92616e-05
4.54303e-05
5.20765e-05
6.34197e-05
7.49579e-05
8.60202e-05
0.0014388
9.90976e-05
9.93253e-05
0.000107776
0.000135184
0.000365513
0.000184962
0.000251092
0.000261635
0.000278175
0.0019281
0.000180338
0.000113969
4.19872e-05
2.00133e-05
9.38941e-06
4.19248e-06
9.47081e-07
3.34318e-07
2.67133e-07
1.12537e-07
1.78163e-08
0
0
2.61234e-08
0
0
0
0
0
0
0
0
0
0
0
0
0
0
0
0
0
0
0
0
0
0
0
0
0
0
0
0
0
0
0
0
0
0
0
0
0
0
0
0
0
0
0
0
1.82759e-05
1.76664e-05
1.63858e-05
1.45822e-05
1.16232e-05
8.55769e-06
6.49303e-06
6.85075e-06
8.93151e-06
1.14235e-05
1.40519e-05
1.65084e-05
1.74697e-05
1.58431e-05
1.17938e-05
6.97634e-06
3.46409e-06
2.07119e-06
2.59507e-06
3.23404e-06
6.29728e-06
1.35793e-05
2.32281e-05
2.68903e-05
3.04957e-05
0.000831282
0.000870289
4.55388e-05
5.13895e-05
5.88346e-05
6.72648e-05
7.5146e-05
7.82923e-05
8.26186e-05
9.79212e-05
0.000128404
0.000147772
0.00016581
0.000184156
0.000236472
0.000241942
0.00021949
0.00015716
0.000569468
3.5248e-05
1.72773e-05
7.68075e-06
2.87421e-06
5.75394e-07
3.05401e-07
1.58747e-07
2.69314e-08
0
0
0
0
0
0
0
0
0
0
0
0
0
0
0
0
0
0
0
0
0
0
0
0
0
0
0
0
0
0
0
0
0
0
0
0
0
0
0
0
0
0
0
0
0
0
0
0
1.80166e-05
1.63194e-05
1.45597e-05
1.16789e-05
7.54337e-06
3.47676e-06
1.77591e-06
2.33324e-06
3.89134e-06
5.89542e-06
8.38319e-06
1.09879e-05
1.28235e-05
1.29861e-05
1.09905e-05
7.48053e-06
4.03499e-06
2.14339e-06
1.87433e-06
3.8997e-06
5.90903e-06
1.16134e-05
0.000381806
2.44821e-05
2.87952e-05
3.33002e-05
3.70622e-05
3.95457e-05
4.16955e-05
4.57876e-05
5.16623e-05
5.77572e-05
6.23491e-05
0.000423877
0.000236825
0.000114769
0.00012343
0.000144166
0.000168079
0.000211138
0.000206713
0.000178685
0.00012988
6.80353e-05
3.01471e-05
1.52627e-05
6.7655e-06
2.0201e-06
4.44012e-07
2.80681e-07
1.42068e-07
1.51801e-08
0
0
0
0
0
0
0
0
0
0
0
0
0
0
0
0
0
0
0
0
0
0
0
0
0
0
0
0
0
0
0
0
0
0
0
0
0
0
0
0
0
0
0
0
0
0
0
0
1.70899e-05
1.37439e-05
1.01801e-05
7.24905e-06
3.44517e-06
9.70548e-07
5.80178e-07
1.09245e-06
2.1049e-06
3.60431e-06
5.62497e-06
7.8314e-06
9.70455e-06
1.07466e-05
1.02778e-05
8.03333e-06
4.90239e-06
2.52114e-06
1.74649e-06
3.28361e-06
5.90336e-06
1.0005e-05
1.68486e-05
2.23874e-05
0.000400965
2.8067e-05
3.01885e-05
0.000507706
3.35246e-05
3.48261e-05
3.86493e-05
4.37393e-05
4.99242e-05
6.16831e-05
8.27824e-05
9.57565e-05
9.70865e-05
0.000123958
0.000151889
0.000155003
0.000163056
0.000151347
0.000102171
0.000655771
2.64207e-05
1.32809e-05
5.96236e-06
1.40378e-06
3.735e-07
2.22061e-07
4.23518e-08
0
0
0
0
0
0
0
0
0
0
0
0
0
0
0
0
0
0
0
0
0
0
0
0
0
0
0
0
0
0
0
0
0
0
0
0
0
0
0
0
0
0
0
0
0
0
0
0
0
1.49269e-05
8.30805e-06
4.58734e-06
2.40632e-06
8.2683e-07
2.34245e-07
3.35067e-07
7.31135e-07
1.43555e-06
2.60949e-06
4.22111e-06
6.00246e-06
7.69045e-06
9.07817e-06
9.554e-06
8.47157e-06
5.95277e-06
3.3086e-06
1.83488e-06
2.06226e-06
0.00031357
7.86951e-06
1.21654e-05
1.77792e-05
0.00034658
2.25065e-05
2.38945e-05
2.64977e-05
2.54564e-05
2.55024e-05
2.82311e-05
3.23773e-05
3.95088e-05
5.33096e-05
6.70481e-05
7.11696e-05
7.44181e-05
0.00010625
0.000136807
0.0001361
0.00180699
0.000131613
7.81293e-05
4.8249e-05
2.28571e-05
1.1115e-05
5.04664e-06
9.59149e-07
3.11396e-07
2.02372e-07
2.68744e-08
0
0
0
0
0
0
0
0
0
0
0
0
0
0
0
0
0
0
0
0
0
0
0
0
0
0
0
0
0
0
0
0
0
0
0
0
0
0
0
0
0
0
0
0
0
0
0
0
0
9.76337e-06
2.12085e-06
6.76874e-07
2.89455e-07
1.50621e-07
1.87875e-07
3.38153e-07
6.18371e-07
1.15185e-06
2.09497e-06
3.44025e-06
4.89252e-06
6.35603e-06
7.76559e-06
8.76285e-06
8.63496e-06
6.94456e-06
4.38843e-06
2.36241e-06
1.73095e-06
3.34079e-06
6.92075e-06
8.39644e-06
1.29754e-05
1.63196e-05
1.76593e-05
0.000436439
1.90056e-05
1.81412e-05
1.78309e-05
2.02985e-05
2.37712e-05
3.39406e-05
4.35483e-05
4.70931e-05
4.76456e-05
5.80741e-05
9.45913e-05
0.000119884
0.000116529
0.000119508
0.000111846
6.06057e-05
3.91907e-05
1.96549e-05
9.24706e-06
3.87537e-06
6.33872e-07
2.65247e-07
1.20564e-07
3.0593e-08
0
0
0
0
0
0
0
0
0
0
0
0
0
0
0
0
0
0
0
0
0
0
0
0
0
0
0
0
0
0
0
0
0
0
0
0
0
0
0
0
0
0
0
0
0
0
0
0
0
3.41219e-08
2.62934e-07
2.70764e-07
2.89615e-07
2.96413e-07
3.11761e-07
3.79e-07
5.66654e-07
1.00286e-06
1.84494e-06
2.96329e-06
4.15761e-06
5.40254e-06
6.72352e-06
7.94626e-06
8.47373e-06
7.63575e-06
5.51515e-06
3.24835e-06
1.88701e-06
1.7303e-06
5.32508e-06
8.72814e-06
1.01912e-05
1.23925e-05
0.000434266
0.000391239
1.2796e-05
1.19979e-05
1.17937e-05
0.000372901
1.80892e-05
3.1362e-05
3.14124e-05
2.76827e-05
3.22343e-05
4.74991e-05
8.68065e-05
9.9803e-05
9.7352e-05
0.000103552
9.00917e-05
4.84083e-05
0.000336122
1.71023e-05
7.50864e-06
3.03988e-06
4.95732e-07
2.04696e-07
7.87977e-08
5.8226e-08
0
0
0
0
0
0
0
0
0
0
0
0
0
0
0
0
0
0
0
0
0
0
0
0
0
0
0
0
0
0
0
0
0
0
0
0
0
0
0
0
0
0
0
0
0
0
0
0
0
1.07564e-06
9.8663e-07
8.36401e-07
6.88258e-07
5.29048e-07
4.09413e-07
3.89332e-07
5.21092e-07
8.94724e-07
1.58706e-06
2.43944e-06
3.41032e-06
4.48887e-06
5.66231e-06
6.9143e-06
7.90748e-06
8.07329e-06
7.01762e-06
5.06844e-06
3.15545e-06
1.88749e-06
1.96056e-06
5.25141e-06
8.68397e-06
7.70949e-06
7.38865e-06
6.73064e-06
6.01992e-06
5.25431e-06
4.92518e-06
6.04973e-06
1.0272e-05
7.71335e-06
7.24577e-06
9.70956e-06
1.59709e-05
3.46381e-05
7.62859e-05
7.11021e-05
7.63227e-05
8.22129e-05
5.80138e-05
0.000544934
2.5604e-05
1.27798e-05
4.72829e-06
1.12237e-06
2.89392e-07
4.81231e-08
2.6764e-08
2.70536e-08
2.87897e-09
0
0
0
0
0
0
0
0
0
0
0
0
0
0
0
0
0
0
0
0
0
0
0
0
0
0
0
0
0
0
0
0
0
0
0
0
0
0
0
0
0
0
0
0
0
0
0
0
1.33187e-07
2.19414e-07
2.76278e-07
2.8808e-07
2.70141e-07
2.55928e-07
2.90018e-07
4.3294e-07
7.71103e-07
1.32965e-06
1.9847e-06
2.63449e-06
3.49339e-06
4.48269e-06
5.5332e-06
6.52393e-06
7.11062e-06
6.92715e-06
5.87394e-06
4.2923e-06
2.7563e-06
1.76678e-06
1.50004e-06
2.26396e-06
3.55621e-06
4.0318e-06
3.59072e-06
2.32562e-06
1.04561e-06
5.66604e-07
7.33016e-07
9.51568e-07
2.41446e-07
8.08504e-07
2.89014e-06
8.50133e-06
2.83852e-05
5.37665e-05
4.70489e-05
5.68087e-05
5.22008e-05
0.00061637
0.000323514
1.86134e-05
7.77925e-06
2.51433e-06
5.0878e-07
1.16052e-07
2.54013e-08
0
0
0
0
0
0
0
0
0
0
0
0
0
0
0
0
0
0
0
0
0
0
0
0
0
0
0
0
0
0
0
0
0
0
0
0
0
0
0
0
0
0
0
0
0
0
0
0
0
0
0
1.84342e-08
5.2602e-08
8.37079e-08
1.08407e-07
1.27951e-07
1.56152e-07
2.21627e-07
3.72555e-07
6.69685e-07
1.11405e-06
1.62625e-06
2.1397e-06
2.70044e-06
3.5448e-06
4.41678e-06
5.21642e-06
5.7746e-06
5.85781e-06
5.35278e-06
4.35811e-06
3.15829e-06
2.07728e-06
1.30059e-06
8.92507e-07
7.65179e-07
7.26758e-07
5.71937e-07
2.59533e-07
1.73196e-07
6.5352e-08
4.34347e-08
1.52322e-07
1.17969e-07
2.16349e-07
1.38163e-06
6.18638e-06
2.89829e-05
2.86403e-05
3.25283e-05
3.7076e-05
3.07435e-05
2.88692e-05
2.34234e-05
1.20125e-05
4.44927e-06
1.20078e-06
3.09737e-07
4.26775e-08
0
0
0
0
0
0
0
0
0
0
0
0
0
0
0
0
0
0
0
0
0
0
0
0
0
0
0
0
0
0
0
0
0
0
0
0
0
0
0
0
0
0
0
0
0
0
0
0
0
0
0
0
3.7098e-09
1.38933e-08
2.87475e-08
4.66775e-08
7.40888e-08
1.19928e-07
2.02666e-07
3.56008e-07
6.09284e-07
9.54262e-07
1.34454e-06
1.75249e-06
2.20499e-06
2.79701e-06
3.58364e-06
4.25505e-06
4.72269e-06
4.85988e-06
4.5969e-06
3.98321e-06
3.15661e-06
2.3194e-06
1.58277e-06
9.85414e-07
5.50147e-07
2.86145e-07
1.80121e-07
1.5781e-07
1.19269e-07
6.69057e-08
3.95205e-08
3.22582e-08
7.04131e-08
1.28573e-07
1.15092e-06
6.80473e-06
1.89929e-05
1.72263e-05
2.0951e-05
2.23656e-05
2.2463e-05
2.49793e-05
1.60968e-05
7.27786e-06
2.63203e-06
6.10317e-07
1.87421e-07
2.83937e-08
0
0
0
0
0
0
0
0
0
0
0
0
0
0
0
0
0
0
0
0
0
0
0
0
0
0
0
0
0
0
0
0
0
0
0
0
0
0
0
0
0
0
0
0
0
0
0
0
0
0
0
0
0
5.33159e-09
1.22543e-08
3.01852e-08
6.61267e-08
1.25316e-07
2.26483e-07
3.77845e-07
5.8595e-07
8.43786e-07
1.13307e-06
1.44809e-06
1.8341e-06
2.34047e-06
2.9719e-06
3.59571e-06
4.0372e-06
4.21087e-06
4.1164e-06
3.77027e-06
3.21356e-06
2.53831e-06
1.84408e-06
1.20498e-06
6.8783e-07
3.50074e-07
2.06137e-07
1.20274e-07
7.67217e-08
4.11284e-08
2.07149e-08
1.88003e-08
5.63182e-08
1.66225e-07
1.62341e-06
9.40333e-06
8.48088e-06
1.1329e-05
1.48896e-05
1.78031e-05
2.25812e-05
2.04521e-05
1.08025e-05
3.96032e-06
1.07568e-06
3.27228e-07
4.87598e-08
2.60658e-08
0
0
0
0
0
0
0
0
0
0
0
0
0
0
0
0
0
0
0
0
0
0
0
0
0
0
0
0
0
0
0
0
0
0
0
0
0
0
0
0
0
0
0
0
0
0
0
0
0
0
0
0
0
2.03698e-12
1.23958e-08
3.23411e-08
7.68749e-08
1.54664e-07
2.57973e-07
3.96207e-07
5.54383e-07
7.46423e-07
9.61813e-07
1.37273e-06
1.94591e-06
2.67247e-06
3.3798e-06
4.04674e-06
4.47302e-06
4.61727e-06
4.47946e-06
4.08458e-06
3.48638e-06
2.76283e-06
2.00221e-06
1.28782e-06
7.09251e-07
3.49045e-07
1.94808e-07
9.25237e-08
5.01757e-08
2.58242e-08
1.16767e-08
4.33147e-08
8.23328e-08
8.06099e-07
2.78976e-06
3.82851e-06
5.26988e-06
8.40119e-06
1.50476e-05
1.80345e-05
2.15332e-05
1.30327e-05
5.82246e-06
2.05171e-06
4.78257e-07
1.13334e-07
2.48482e-08
0
0
0
0
0
0
0
0
0
0
0
0
0
0
0
0
0
0
0
0
0
0
0
0
0
0
0
0
0
0
0
0
0
0
0
0
0
0
0
0
0
0
0
0
0
0
0
0
0
0
0
0
0
0
7.12671e-11
9.8185e-09
3.3281e-08
7.57235e-08
1.3047e-07
2.04131e-07
2.92828e-07
4.18401e-07
6.09006e-07
1.07754e-06
1.75258e-06
2.52119e-06
3.46069e-06
4.33358e-06
5.00039e-06
5.39465e-06
5.45125e-06
5.17549e-06
4.61379e-06
3.84787e-06
2.96785e-06
2.07499e-06
1.26542e-06
6.43354e-07
2.90767e-07
1.55752e-07
6.92647e-08
3.65221e-08
1.74284e-08
8.944e-09
9.50715e-08
2.77122e-07
7.36463e-07
1.38149e-06
2.4699e-06
4.7959e-06
8.27092e-06
1.51925e-05
1.54367e-05
1.35312e-05
7.6206e-06
2.93952e-06
7.794e-07
2.74196e-07
3.01441e-08
0
0
0
0
0
0
0
0
0
0
0
0
0
0
0
0
0
0
0
0
0
0
0
0
0
0
0
0
0
0
0
0
0
0
0
0
0
0
0
0
0
0
0
0
0
0
0
0
0
0
0
0
0
0
0
0
4.07696e-09
6.13507e-09
1.16422e-08
1.52161e-08
2.08436e-08
4.78425e-08
1.46616e-07
5.1761e-07
1.30227e-06
2.35045e-06
3.42175e-06
4.58834e-06
5.74076e-06
6.40096e-06
6.70426e-06
6.60416e-06
6.09647e-06
5.26882e-06
4.24679e-06
3.15175e-06
2.09924e-06
1.19449e-06
5.43282e-07
2.10458e-07
1.08314e-07
5.07361e-08
2.80692e-08
8.64238e-09
4.79482e-08
1.23873e-07
4.18063e-07
8.96322e-07
1.42482e-06
2.77355e-06
6.15348e-06
9.02111e-06
1.42761e-05
1.06336e-05
7.60603e-06
3.56448e-06
1.282e-06
4.1242e-07
1.7012e-07
2.50647e-08
0
0
0
0
0
0
0
0
0
0
0
0
0
0
0
0
0
0
0
0
0
0
0
0
0
0
0
0
0
0
0
0
0
0
0
0
0
0
0
0
0
0
0
0
0
0
0
0
0
0
0
0
0
0
0
0
0
1.20101e-09
2.64688e-09
1.0606e-09
1.68116e-09
1.97445e-09
1.66337e-08
3.26009e-07
1.3978e-06
2.96938e-06
4.50606e-06
6.00612e-06
7.45662e-06
8.10229e-06
8.2612e-06
7.92439e-06
7.10404e-06
5.95129e-06
4.63545e-06
3.31324e-06
2.10815e-06
1.1235e-06
4.52127e-07
1.34433e-07
5.06453e-08
2.37778e-08
8.43336e-09
4.10765e-08
1.45357e-07
4.44491e-07
1.08889e-06
1.84938e-06
2.38201e-06
4.10318e-06
7.27307e-06
8.88304e-06
1.06368e-05
6.52736e-06
3.35204e-06
1.60014e-06
4.88778e-07
2.33809e-07
3.35607e-08
1.99399e-09
0
0
0
0
0
0
0
0
0
0
0
0
0
0
0
0
0
0
0
0
0
0
0
0
0
0
0
0
0
0
0
0
0
0
0
0
0
0
0
0
0
0
0
0
0
0
0
0
0
0
0
0
0
0
0
0
0
4.95769e-10
6.63632e-10
1.6573e-09
1.90752e-09
5.00152e-09
2.31339e-08
1.75437e-07
1.18475e-06
3.17496e-06
5.36464e-06
7.45261e-06
9.1586e-06
9.80008e-06
9.80767e-06
9.21484e-06
8.07987e-06
6.60038e-06
5.00823e-06
3.488e-06
2.16086e-06
1.11538e-06
4.21524e-07
9.48599e-08
1.47698e-08
1.02502e-08
4.09236e-08
1.91094e-07
5.85998e-07
1.47746e-06
2.78891e-06
4.16424e-06
4.15667e-06
6.35207e-06
8.04604e-06
7.44331e-06
6.81151e-06
3.3949e-06
1.6032e-06
5.6432e-07
2.45146e-07
4.18081e-08
2.13421e-08
0
0
0
0
0
0
0
0
0
0
0
0
0
0
0
0
0
0
0
0
0
0
0
0
0
0
0
0
0
0
0
0
0
0
0
0
0
0
0
0
0
0
0
0
0
0
0
0
0
0
0
0
0
0
0
0
0
0
0
5.71306e-10
1.01238e-09
1.76708e-09
5.74882e-09
2.4801e-08
1.07827e-07
7.46909e-07
2.75541e-06
5.35829e-06
8.2125e-06
1.03943e-05
1.11692e-05
1.10923e-05
1.03113e-05
8.94289e-06
7.20323e-06
5.40236e-06
3.74268e-06
2.33425e-06
1.24246e-06
5.16367e-07
1.54125e-07
5.03379e-08
8.59102e-08
2.81984e-07
7.76137e-07
1.84428e-06
3.79103e-06
5.53454e-06
8.18297e-06
6.23405e-06
7.90227e-06
7.47621e-06
5.55996e-06
3.7597e-06
1.82045e-06
6.01669e-07
2.78725e-07
4.39706e-08
2.29166e-08
0
0
0
0
0
0
0
0
0
0
0
0
0
0
0
0
0
0
0
0
0
0
0
0
0
0
0
0
0
0
0
0
0
0
0
0
0
0
0
0
0
0
0
0
0
0
0
0
0
0
0
0
0
0
0
0
0
0
0
0
0
1.70915e-09
1.89224e-09
3.10058e-09
1.76541e-08
8.68941e-08
3.54294e-07
1.91235e-06
4.73695e-06
7.95702e-06
1.07627e-05
1.19383e-05
1.19421e-05
1.11328e-05
9.64549e-06
7.77921e-06
5.86514e-06
4.14796e-06
2.71606e-06
1.59903e-06
8.18988e-07
4.17084e-07
3.27117e-07
4.84446e-07
9.91385e-07
2.08704e-06
4.03583e-06
7.63658e-06
8.09083e-06
8.64273e-06
7.30591e-06
6.98014e-06
5.4746e-06
3.22951e-06
1.84426e-06
7.0804e-07
3.40669e-07
1.04131e-07
2.13976e-08
0
0
0
0
0
0
0
0
0
0
0
0
0
0
0
0
0
0
0
0
0
0
0
0
0
0
0
0
0
0
0
0
0
0
0
0
0
0
0
0
0
0
0