/*--------------------------------*- C++ -*----------------------------------*\
  =========                 |
  \\      /  F ield         | OpenFOAM: The Open Source CFD Toolbox
   \\    /   O peration     | Website:  https://openfoam.org
    \\  /    A nd           | Version:  6
     \\/     M anipulation  |
\*---------------------------------------------------------------------------*/
FoamFile
{
    version     2.0;
    format      ascii;
    class       volScalarField;
    location    "0.005";
    object      CH3CHOH;
}
// * * * * * * * * * * * * * * * * * * * * * * * * * * * * * * * * * * * * * //

dimensions      [0 0 0 0 0 0 0];

internalField   nonuniform List<scalar> 
8000
(
2.80675e-30
1.50023e-25
1.17183e-24
1.80815e-23
4.56369e-22
1.36298e-20
2.80883e-19
2.98344e-18
1.60642e-17
5.53504e-17
1.55918e-16
3.57206e-16
6.95767e-16
1.06524e-15
1.108e-15
1.05361e-15
1.49596e-15
4.1498e-15
1.90989e-14
1.72319e-13
4.55846e-12
8.98483e-10
3.38265e-07
2.80079e-07
3.0148e-06
2.28644e-05
4.97508e-05
4.86064e-05
3.18441e-05
1.97132e-05
1.6323e-05
2.11903e-05
3.97239e-05
8.0056e-05
0.000148266
0.000211534
0.000294187
0.000358053
0.00042534
0.000452455
0.000462437
0.000458594
0.000427681
0.000299134
9.73517e-05
3.55265e-06
1.42519e-07
4.19364e-08
5.01482e-09
7.8538e-12
1.78251e-14
5.0911e-16
1.20295e-17
0
0
0
0
0
0
0
0
0
0
0
0
0
0
0
0
0
0
0
0
0
0
0
0
0
0
0
0
0
0
0
0
0
0
0
0
0
0
0
0
0
0
0
0
0
0
0
8.48661e-29
3.35396e-24
8.56587e-24
9.75847e-23
1.51431e-21
3.9892e-20
9.36847e-19
1.30734e-17
9.77636e-17
4.05337e-16
1.06528e-15
2.0185e-15
3.57707e-15
6.65569e-15
6.23683e-15
4.12262e-15
4.5827e-15
1.11991e-14
3.86841e-14
2.66837e-13
6.55185e-12
2.06439e-09
4.67498e-05
8.92256e-07
3.78806e-06
3.18935e-05
8.16661e-05
6.54327e-05
3.41749e-05
1.8773e-05
1.50712e-05
2.01395e-05
3.95264e-05
8.24991e-05
0.000155383
0.000226024
0.000300371
0.000370035
0.000428904
0.000454263
0.000455322
0.000461271
0.000430259
0.000301777
0.000101491
4.70648e-06
1.68809e-07
2.9893e-08
7.68637e-09
4.01136e-12
6.6495e-17
3.37017e-19
9.67448e-18
0
0
0
0
0
0
0
0
0
0
0
0
0
0
0
0
0
0
0
0
0
0
0
0
0
0
0
0
0
0
0
0
0
0
0
0
0
0
0
0
0
0
0
0
0
0
0
4.7932e-25
2.10119e-12
2.13308e-24
4.64374e-12
1.30896e-20
2.17284e-19
4.2494e-18
1.01043e-16
1.86993e-11
8.47323e-15
2.521e-14
4.10189e-14
4.92169e-14
9.58799e-14
2.34898e-10
1.54688e-10
2.26541e-14
6.59887e-14
1.77029e-13
6.23566e-13
5.72008e-12
4.7948e-10
1.67796e-07
1.71289e-07
1.72022e-06
2.73347e-05
3.8831e-05
8.81352e-05
3.08806e-05
1.49633e-05
1.2514e-05
1.8624e-05
4.03268e-05
8.88409e-05
0.000171782
0.000261288
0.000322649
0.000378744
0.000439183
0.000460537
0.000460613
0.000457064
0.000439248
0.000316528
0.000115807
6.30494e-06
2.92108e-06
1.23821e-08
2.35204e-08
2.84995e-12
1.06785e-14
3.87984e-16
3.25729e-23
0
0
0
0
0
0
0
0
0
0
0
0
0
0
0
0
0
0
0
0
0
0
0
0
0
0
0
0
0
0
0
0
0
0
0
0
0
0
0
0
0
0
0
0
0
0
0
8.05138e-29
6.52005e-23
4.63206e-21
7.78634e-20
5.38314e-19
1.89299e-18
1.53141e-17
2.82012e-16
6.45762e-15
2.2366e-10
1.25236e-12
1.69396e-12
1.43995e-12
3.32504e-10
5.71719e-14
3.92512e-14
9.26749e-14
8.18507e-13
7.57842e-10
4.87967e-12
2.3592e-11
1.70009e-08
7.77091e-09
4.46401e-08
4.35588e-07
5.63672e-06
2.15029e-05
2.42344e-05
1.65214e-05
2.88532e-05
1.10756e-05
1.9173e-05
4.45381e-05
9.97171e-05
0.000196731
0.000289469
0.000349079
0.000415695
0.000448342
0.000458894
0.000466859
0.000463843
0.000446907
0.000323993
0.000124839
5.98583e-06
1.06234e-07
1.67283e-09
4.26296e-11
2.43802e-13
4.14402e-15
2.42659e-16
2.74283e-26
0
0
0
0
0
0
0
0
0
0
0
0
0
0
0
0
0
0
0
0
0
0
0
0
0
0
0
0
0
0
0
0
0
0
0
0
0
0
0
0
0
0
0
0
0
0
0
1.34396e-26
1.21813e-22
1.79187e-11
2.18431e-18
1.20433e-10
2.48289e-17
6.50645e-17
1.55785e-11
1.19873e-14
3.72662e-10
2.30752e-08
1.18057e-08
2.72069e-09
4.98548e-13
1.02407e-13
2.4812e-10
5.10031e-13
1.36997e-09
4.30063e-11
5.8625e-11
1.29172e-08
2.43166e-08
3.31797e-09
4.35466e-07
1.31597e-06
1.43687e-06
6.57248e-06
7.53241e-05
3.02993e-05
1.255e-05
1.17607e-05
2.32698e-05
5.38151e-05
0.000122138
0.000229729
3.85504e-05
0.000398425
0.00043161
0.000447947
0.000466908
0.000473332
0.000470647
0.000457093
0.000342137
0.000135175
6.33889e-06
7.32722e-08
3.48201e-10
3.1888e-12
4.30528e-14
1.3924e-15
4.96317e-17
0
0
0
0
0
0
0
0
0
0
0
0
0
0
0
0
0
0
0
0
0
0
0
0
0
0
0
0
0
0
0
0
0
0
0
0
0
0
0
0
0
0
0
0
0
0
0
0
4.73007e-25
1.96821e-23
3.85011e-19
6.44673e-12
1.9213e-16
1.01518e-11
1.36246e-16
4.55703e-16
3.8361e-15
7.1011e-14
1.0806e-12
1.27488e-12
4.15306e-13
1.13405e-13
9.70618e-14
3.53633e-13
3.87428e-12
1.09968e-08
1.55378e-09
4.98681e-08
8.42565e-10
5.31033e-08
4.5945e-09
5.34875e-07
2.87447e-06
1.12281e-06
3.12228e-06
2.75626e-05
2.40772e-05
7.51776e-06
1.13059e-05
3.16924e-05
5.29732e-05
0.000140845
0.000254891
0.000341972
0.000410139
0.000441633
0.000455971
0.000474765
0.000479524
0.000476748
2.50126e-05
0.000351134
0.000147162
8.45175e-06
8.99282e-08
2.0575e-10
8.83099e-13
1.76384e-14
2.81836e-16
8.11923e-20
0
0
0
0
0
0
0
0
0
0
0
0
0
0
0
0
0
0
0
0
0
0
0
0
0
0
0
0
0
0
0
0
0
0
0
0
0
0
0
0
0
0
0
0
0
0
0
0
4.35824e-25
2.56195e-22
6.06672e-20
1.25003e-18
9.94623e-18
3.85788e-17
1.21973e-10
1.08129e-15
4.87635e-15
1.6103e-14
1.38527e-10
1.97525e-10
1.75325e-10
9.20897e-14
2.60286e-13
1.79777e-12
1.49907e-11
6.19523e-10
4.99015e-07
1.43087e-08
2.03911e-07
7.66978e-09
2.50091e-07
1.15003e-07
2.4446e-05
2.27182e-06
1.77974e-06
2.86925e-06
2.95788e-06
5.5157e-06
1.52712e-05
4.03118e-05
8.78547e-05
0.000163059
0.000268933
0.000358043
0.00042458
0.000442236
0.000461243
2.35273e-05
0.000484724
0.000481904
0.000459494
0.00035626
0.000161378
1.2805e-05
1.33752e-07
3.07975e-10
8.41594e-13
1.03078e-14
1.03084e-18
1.48867e-19
0
0
0
0
0
0
0
0
0
0
0
0
0
0
0
0
0
0
0
0
0
0
0
0
0
0
0
0
0
0
0
0
0
0
0
0
0
0
0
0
0
0
0
0
0
0
0
0
1.9757e-12
3.56254e-12
5.20105e-20
1.38266e-18
9.64041e-18
1.05251e-10
8.90958e-16
1.71557e-14
2.23947e-10
6.113e-14
4.90556e-14
4.82993e-14
8.09716e-14
4.78143e-13
6.64505e-10
1.58589e-09
1.07102e-08
1.21394e-07
5.09694e-07
1.00835e-06
4.76487e-08
4.7661e-08
5.85564e-07
2.04149e-07
1.2648e-06
4.5248e-06
8.89139e-07
1.22098e-06
2.56272e-06
1.01922e-05
3.45745e-05
7.01273e-05
0.000125301
0.000189728
0.000298471
0.000395353
0.000435835
0.000448607
0.000463686
0.000481634
0.000488199
0.000486835
0.000461391
0.000367613
0.000178589
1.84059e-05
1.83918e-07
9.88943e-09
8.52002e-13
1.78523e-14
8.7606e-17
8.63443e-20
0
0
0
0
0
0
0
0
0
0
0
0
0
0
0
0
0
0
0
0
0
0
0
0
0
0
0
0
0
0
0
0
0
0
0
0
0
0
0
0
0
0
0
0
0
0
0
0
2.67347e-12
4.2881e-12
4.68834e-19
2.2438e-17
8.65085e-11
4.11695e-16
2.26604e-11
1.76725e-13
1.34482e-09
6.80296e-13
3.22857e-10
2.55089e-10
4.7915e-13
1.75816e-12
6.92134e-12
3.5423e-09
2.50864e-08
2.84569e-07
1.31778e-05
5.00054e-07
2.05495e-07
1.32983e-06
2.45403e-07
1.98759e-06
3.47452e-06
7.89748e-07
8.20004e-07
1.35285e-06
4.97303e-06
2.48006e-05
6.43112e-05
7.53576e-05
0.000161838
0.000241396
0.000337616
0.000416105
0.000438498
0.000452225
0.000463339
0.000479801
2.31197e-05
2.3213e-05
0.000463571
0.000368386
5.33701e-05
3.97374e-05
2.06118e-07
2.90331e-10
5.00185e-13
3.07539e-16
7.70864e-19
3.95713e-20
0
0
0
0
0
0
0
0
0
0
0
0
0
0
0
0
0
0
0
0
0
0
0
0
0
0
0
0
0
0
0
0
0
0
0
0
0
0
0
0
0
0
0
0
0
0
0
0
2.02719e-25
9.60202e-12
5.57742e-11
1.88252e-11
2.37259e-16
1.61421e-11
1.64177e-14
1.47787e-13
1.67005e-12
2.25192e-09
6.26208e-12
1.36787e-11
5.34968e-09
9.18001e-09
2.96834e-08
1.82172e-08
8.34633e-10
3.52898e-08
2.59549e-06
1.14884e-06
7.27427e-07
1.41202e-06
1.1795e-06
1.58097e-06
1.41973e-06
1.27454e-06
1.72197e-06
3.02144e-06
8.80258e-06
3.30139e-05
7.61291e-05
0.000139183
6.65828e-05
0.000269492
0.000379765
2.58363e-05
0.000446006
0.000453425
0.000460336
0.000474667
2.34103e-05
0.000488576
0.000463556
0.00036607
0.000158656
1.44923e-05
1.23347e-06
1.36205e-10
2.83213e-13
6.53093e-18
8.77229e-19
4.38268e-20
0
0
0
0
0
0
0
0
0
0
0
0
0
0
0
0
0
0
0
0
0
0
0
0
0
0
0
0
0
0
0
0
0
0
0
0
0
0
0
0
0
0
0
0
0
0
0
0
4.94606e-12
1.02608e-18
2.78699e-17
3.12849e-16
3.24586e-15
4.40357e-11
2.1779e-10
2.51422e-09
5.06604e-11
1.62417e-10
4.459e-10
4.01721e-08
1.1049e-09
4.06353e-08
7.76701e-10
9.38662e-10
2.47648e-09
7.2551e-07
5.64812e-06
1.34802e-05
1.86439e-06
8.15999e-06
3.57247e-06
1.53258e-05
9.41004e-06
3.08173e-06
4.6173e-06
7.90476e-06
2.11722e-05
5.08506e-05
9.55707e-05
0.000160555
0.000240545
0.0003134
0.000396458
2.58383e-05
0.000449323
2.51699e-05
0.000454835
0.000467017
0.0004793
0.000486087
0.000463079
0.000353323
0.000146748
1.19748e-05
9.22079e-08
6.46036e-11
1.64023e-13
5.84855e-16
5.58839e-19
4.69888e-20
0
0
0
0
0
0
0
0
0
0
0
0
0
0
0
0
0
0
0
0
0
0
0
0
0
0
0
0
0
0
0
0
0
0
0
0
0
0
0
0
0
0
0
0
0
0
0
0
1.93953e-20
1.73287e-16
5.42987e-15
3.64174e-10
1.79887e-12
1.93478e-09
5.98043e-09
6.19167e-10
5.6817e-08
4.9027e-08
4.85219e-08
4.58813e-08
5.28562e-08
3.7765e-07
1.79684e-08
1.61874e-08
2.8301e-08
1.0674e-06
5.53407e-06
7.78288e-06
3.52879e-06
4.77585e-06
8.34314e-06
1.3874e-05
7.72973e-06
6.84747e-06
1.15494e-05
2.86795e-05
4.53112e-05
6.31328e-05
0.000140206
0.000199642
0.00027971
3.21702e-05
0.000401148
0.000423034
2.53821e-05
0.000445774
0.00044676
0.000457937
0.000470815
0.000484263
2.50042e-05
0.00034618
0.000133259
2.6364e-05
4.82959e-07
4.50081e-10
9.85451e-14
3.81299e-18
3.42353e-17
6.74045e-20
2.45298e-23
0
0
0
0
0
0
0
0
0
0
0
0
0
0
0
0
0
0
0
0
0
0
0
0
0
0
0
0
0
0
0
0
0
0
0
0
0
0
0
0
0
0
0
0
0
0
0
1.09626e-17
1.80352e-12
3.36628e-11
1.26885e-08
7.15586e-08
1.62908e-07
9.10319e-09
4.42914e-07
3.376e-06
4.42153e-06
2.61133e-06
2.27661e-06
8.0559e-07
1.28715e-06
2.42396e-07
1.49824e-07
1.30294e-06
4.5633e-07
1.69673e-06
1.04198e-05
9.59247e-06
9.53105e-06
1.5483e-05
3.58286e-05
1.4448e-05
1.52134e-05
2.24205e-05
3.64774e-05
6.90323e-05
0.000128914
0.000177376
0.000251147
0.000324252
0.000374155
0.00039806
0.000412865
2.61345e-05
2.61041e-05
0.000436578
0.000448075
0.000462213
2.41187e-05
2.52753e-05
0.000335923
0.000117936
1.78169e-05
3.23201e-08
2.01836e-10
6.50112e-14
1.00747e-15
2.72092e-19
6.87874e-20
3.0477e-20
8.77934e-23
0
0
0
0
0
0
0
0
0
0
0
0
0
0
0
0
0
0
0
0
0
0
0
0
0
0
0
0
0
0
0
0
0
0
0
0
0
0
0
0
0
0
0
0
0
0
4.44836e-14
7.12309e-07
9.33134e-07
8.52873e-07
3.52804e-07
4.1783e-06
1.64898e-06
5.62352e-07
2.76488e-06
5.75932e-06
8.95936e-06
7.58962e-06
5.55743e-06
3.48097e-06
1.86092e-06
8.91675e-07
7.6106e-07
5.69451e-06
3.45594e-06
1.95539e-05
4.16003e-05
1.85033e-05
2.11419e-05
2.64779e-05
3.66385e-05
3.32023e-05
3.73052e-05
5.79206e-05
0.000101152
0.000178389
0.000242952
0.000303041
3.1306e-05
0.000381972
0.000389193
0.00040311
0.00041143
2.70657e-05
0.000424046
0.000437639
0.000452851
0.000472968
0.000456812
0.000312051
9.64843e-05
2.6635e-06
1.77988e-08
4.60963e-12
3.9974e-14
7.35936e-16
1.7982e-19
7.09912e-20
5.60883e-20
4.17143e-20
5.26109e-23
0
0
0
0
0
0
0
0
0
0
0
0
0
0
0
0
0
0
0
0
0
0
0
0
0
0
0
0
0
0
0
0
0
0
0
0
0
0
0
0
0
0
0
0
0
5.36469e-08
7.32462e-05
3.41455e-05
2.4988e-05
6.46681e-06
1.99482e-05
2.68097e-06
1.17496e-05
2.94414e-05
2.88362e-05
4.08922e-05
3.70311e-05
3.51102e-05
1.46424e-05
2.48897e-05
3.51362e-06
1.82294e-06
1.92791e-06
4.41709e-06
3.09192e-05
4.04904e-05
3.63405e-05
2.55965e-05
3.41169e-05
4.50428e-05
3.27681e-05
6.39647e-05
8.91402e-05
0.000146117
4.11002e-05
3.96394e-05
3.2574e-05
3.08069e-05
3.1039e-05
3.10806e-05
3.03186e-05
0.000378923
0.000385594
2.83973e-05
0.000431252
2.62577e-05
0.000465735
2.73043e-05
4.40947e-05
7.9885e-05
4.37152e-06
8.6378e-09
2.02265e-12
2.64836e-14
1.12674e-18
1.52434e-19
6.99648e-20
6.00122e-20
4.98201e-20
3.03011e-20
0
0
0
0
0
0
0
0
0
0
0
0
0
0
0
0
0
0
0
0
0
0
0
0
0
0
0
0
0
0
0
0
0
0
0
0
0
0
0
0
0
0
0
0
0
6.57931e-07
7.85876e-06
1.99922e-05
6.84126e-05
4.97325e-05
3.43818e-05
7.06167e-06
1.2138e-05
4.27519e-05
8.92048e-05
0.000274014
6.15713e-05
8.8002e-05
3.8162e-05
1.63095e-05
6.78526e-06
3.70305e-06
3.22893e-06
6.93203e-06
3.13256e-05
1.80303e-05
2.07947e-05
3.21576e-05
5.25188e-05
4.30958e-05
9.14846e-05
0.000102804
0.000137624
0.000178478
0.000258724
4.11268e-05
0.00032625
0.000357241
0.000351985
0.000347327
3.25349e-05
3.29708e-05
0.000349348
3.1515e-05
2.99835e-05
0.000424043
2.56414e-05
2.99024e-05
0.00026044
5.69975e-05
4.83197e-07
3.2071e-09
8.15068e-13
1.49214e-14
1.00589e-18
1.29086e-19
6.1026e-20
5.41335e-20
5.1932e-20
4.89559e-20
0
0
0
0
0
0
0
0
0
0
0
0
0
0
0
0
0
0
0
0
0
0
0
0
0
0
0
0
0
0
0
0
0
0
0
0
0
0
0
0
0
0
0
0
0
6.78126e-08
3.33329e-06
9.41867e-06
5.3257e-05
0.000129449
3.25354e-05
1.18132e-05
1.39139e-05
4.1896e-05
5.25562e-05
0.000340576
2.57667e-05
5.61283e-05
9.09315e-05
3.08386e-05
1.4713e-05
8.37837e-06
6.54798e-06
1.22843e-05
1.42815e-05
1.63213e-05
2.26747e-05
3.68948e-05
5.0276e-05
7.54216e-05
0.000122068
7.45931e-05
7.05542e-05
6.70577e-05
6.05947e-05
0.000266787
0.000299118
0.000300983
0.000301316
3.96187e-05
4.04815e-05
4.09484e-05
0.000274067
0.000301672
3.20802e-05
3.06983e-05
0.00042718
3.27444e-05
0.000207443
4.42247e-05
1.22364e-06
1.04082e-08
3.47764e-13
7.39152e-15
8.34998e-19
8.298e-20
3.49205e-22
1.57094e-23
7.73537e-23
2.0661e-26
0
0
0
0
0
0
0
0
0
0
0
0
0
0
0
0
0
0
0
0
0
0
0
0
0
0
0
0
0
0
0
0
0
0
0
0
0
0
0
0
0
0
0
0
0
6.95862e-07
3.64022e-06
4.04567e-06
1.3752e-05
7.29374e-05
4.75432e-05
9.78846e-06
9.83021e-06
3.28106e-05
0.000118186
0.000288439
3.15739e-05
4.00512e-05
4.92781e-05
4.4451e-05
1.83617e-05
3.21779e-05
1.07577e-05
3.2136e-05
1.45415e-05
1.6498e-05
3.90399e-05
3.24275e-05
5.49682e-05
8.14779e-05
9.42502e-05
0.000101388
0.000124258
0.000144474
0.000179145
0.000243105
4.21071e-05
4.10444e-05
0.000252743
4.33761e-05
0.000215366
0.000214674
0.000229094
0.000258572
0.000300828
3.24434e-05
3.15219e-05
0.000308875
0.000169604
3.62883e-05
6.44257e-07
3.54505e-10
1.54607e-13
2.79877e-15
2.59214e-19
2.5372e-22
0
0
0
0
0
0
0
0
0
0
0
0
0
0
0
0
0
0
0
0
0
0
0
0
0
0
0
0
0
0
0
0
0
0
0
0
0
0
0
0
0
0
0
0
0
0
0
0
0
8.70723e-07
2.82969e-06
3.51857e-06
2.91988e-06
9.60045e-06
7.17289e-06
3.47071e-06
4.00116e-06
1.22955e-05
3.41694e-05
7.16347e-05
8.21847e-05
6.0252e-05
5.21238e-05
1.70206e-05
1.01057e-05
9.48504e-06
1.19532e-05
1.53466e-05
1.55489e-05
1.7605e-05
2.13557e-05
2.60307e-05
3.65531e-05
5.44388e-05
6.77166e-05
7.62724e-05
6.29163e-05
9.83406e-05
0.000147086
6.64911e-05
6.03223e-05
0.000219982
4.90885e-05
6.08503e-05
0.000144335
0.000139162
0.000146043
5.35758e-05
0.000260251
3.98947e-05
0.00031815
0.000253281
4.53e-05
2.50001e-05
3.37345e-08
7.40562e-11
7.01591e-14
1.6938e-15
1.45807e-19
4.51614e-36
0
0
0
0
0
0
0
0
0
0
0
0
0
0
0
0
0
0
0
0
0
0
0
0
0
0
0
0
0
0
0
0
0
0
0
0
0
0
0
0
0
0
0
0
0
0
0
0
0
8.67779e-07
1.71563e-06
3.83301e-06
4.29302e-06
2.57914e-06
1.55236e-06
1.15205e-06
1.33404e-06
3.07753e-06
5.38385e-06
1.00864e-05
1.21755e-05
9.29774e-06
5.52857e-06
4.52961e-06
3.61541e-06
7.12648e-06
1.16318e-05
1.3533e-05
4.16529e-05
1.55071e-05
4.10349e-05
1.82763e-05
2.33326e-05
3.19393e-05
4.37391e-05
4.94174e-05
5.47394e-05
7.4944e-05
7.12988e-05
7.20511e-05
0.000147027
6.50296e-05
6.39482e-05
0.00012768
0.00011772
7.47571e-05
0.000115537
8.38636e-05
0.000229619
0.00027082
4.30681e-05
0.000187518
0.000101817
1.46675e-05
1.2343e-08
3.6422e-12
3.37585e-14
3.778e-16
1.20128e-19
2.08484e-23
0
0
0
0
0
0
0
0
0
0
0
0
0
0
0
0
0
0
0
0
0
0
0
0
0
0
0
0
0
0
0
0
0
0
0
0
0
0
0
0
0
0
0
0
0
0
0
0
0
8.60972e-07
1.02852e-06
1.86297e-06
3.30767e-06
4.30472e-06
3.47704e-06
2.89166e-06
2.47043e-06
2.24365e-06
2.13917e-06
1.85567e-06
2.22629e-06
1.88081e-06
1.57218e-06
1.36732e-06
1.07077e-06
2.71349e-06
3.24875e-05
8.89455e-06
1.50502e-05
4.31246e-05
1.26201e-05
1.44684e-05
1.7081e-05
2.04775e-05
2.4892e-05
4.44517e-05
3.99593e-05
5.96498e-05
5.89487e-05
9.60378e-05
0.000114293
0.000115605
0.000111808
0.000101525
9.36495e-05
8.39744e-05
8.30186e-05
8.51198e-05
8.15093e-05
0.000240259
0.000244289
0.000158868
3.91394e-05
8.13638e-06
4.56301e-09
1.35083e-12
1.62103e-14
1.05773e-18
1.36901e-19
4.59615e-20
2.13671e-36
0
0
0
0
0
0
0
0
0
0
0
0
0
0
0
0
0
0
0
0
0
0
0
0
0
0
0
0
0
0
0
0
0
0
0
0
0
0
0
0
0
0
0
0
0
0
0
0
8.65987e-07
9.02412e-07
1.03933e-06
1.55647e-06
2.79042e-06
3.79116e-06
3.90452e-06
3.68164e-06
3.17209e-06
2.36208e-06
1.93302e-06
1.49779e-06
1.08411e-06
8.7727e-07
8.78492e-07
1.01918e-06
1.17623e-06
1.99449e-06
4.23285e-06
3.8366e-05
3.95468e-05
8.67428e-06
1.19154e-05
4.30848e-05
4.23301e-05
1.96513e-05
2.35696e-05
3.15175e-05
4.86384e-05
4.20075e-05
4.13867e-05
8.12676e-05
8.06815e-05
7.84452e-05
5.27387e-05
6.5135e-05
5.44853e-05
6.0437e-05
4.95115e-05
0.000123362
0.00016896
0.000179654
0.000130502
5.11125e-05
9.12709e-07
1.84527e-09
5.12876e-13
7.54999e-15
9.02244e-19
1.99287e-19
5.70533e-20
3.79531e-20
0
0
0
0
0
0
0
0
0
0
0
0
0
0
0
0
0
0
0
0
0
0
0
0
0
0
0
0
0
0
0
0
0
0
0
0
0
0
0
0
0
0
0
0
0
0
0
0
8.79076e-07
9.01058e-07
9.08735e-07
9.59714e-07
1.32629e-06
1.97908e-06
2.24127e-06
2.19669e-06
1.79383e-06
1.46676e-06
1.1076e-06
8.26367e-07
6.79577e-07
5.26092e-07
4.65922e-07
6.25513e-07
8.97347e-07
1.32497e-06
1.94725e-06
3.55061e-06
5.13174e-06
6.82293e-06
9.7627e-06
1.34033e-05
1.5037e-05
1.77243e-05
4.08898e-05
2.78222e-05
3.92661e-05
4.97694e-05
5.74909e-05
3.24674e-05
3.17289e-05
6.26123e-05
5.77106e-05
4.87128e-05
3.89902e-05
3.55755e-05
5.97446e-05
0.000107865
0.000149469
0.000159382
9.68044e-05
3.09387e-05
3.20599e-07
7.46073e-10
2.17836e-13
2.3884e-15
7.03796e-19
1.16023e-19
5.60892e-20
4.02375e-20
0
0
0
0
0
0
0
0
0
0
0
0
0
0
0
0
0
0
0
0
0
0
0
0
0
0
0
0
0
0
0
0
0
0
0
0
0
0
0
0
0
0
0
0
0
0
0
0
8.97797e-07
9.20651e-07
8.96181e-07
8.25139e-07
7.83181e-07
8.2264e-07
7.99128e-07
6.95351e-07
7.13128e-07
5.50309e-07
5.08878e-07
4.35206e-07
3.72779e-07
3.30547e-07
2.78474e-07
3.15522e-07
5.6658e-07
9.1802e-07
1.24324e-06
2.22152e-06
3.36819e-05
6.68495e-06
9.52019e-06
1.18943e-05
1.39914e-05
1.70671e-05
2.11341e-05
2.54449e-05
3.23187e-05
3.88474e-05
4.53723e-05
3.38125e-05
5.22685e-05
4.99922e-05
4.46973e-05
3.2526e-05
0.00010576
4.02107e-05
4.45033e-05
9.44272e-05
0.00013541
6.47194e-05
7.41351e-05
1.60013e-05
1.04996e-07
2.89605e-10
1.05471e-13
7.38977e-16
3.54136e-19
8.51552e-20
5.41318e-20
5.58485e-21
0
0
0
0
0
0
0
0
0
0
0
0
0
0
0
0
0
0
0
0
0
0
0
0
0
0
0
0
0
0
0
0
0
0
0
0
0
0
0
0
0
0
0
0
0
0
0
0
9.19517e-07
9.27812e-07
8.61282e-07
7.60906e-07
5.64741e-07
3.58584e-07
2.83186e-07
2.42645e-07
2.49745e-07
2.40045e-07
2.01621e-07
1.76232e-07
1.61253e-07
1.56859e-07
1.55687e-07
1.5711e-07
3.0719e-07
6.8104e-07
1.4476e-06
1.88149e-06
3.08028e-06
6.09763e-06
1.03333e-05
1.15668e-05
1.33836e-05
4.02316e-05
3.89385e-05
2.31302e-05
2.63872e-05
3.06559e-05
3.57671e-05
4.03447e-05
4.11567e-05
3.88575e-05
3.14215e-05
2.02691e-05
2.48499e-05
3.5498e-05
4.70321e-05
8.29214e-05
0.000122103
0.000118345
5.1403e-05
1.57463e-05
3.1589e-08
9.41736e-11
5.48893e-14
1.86341e-18
2.12551e-19
6.96825e-20
2.83626e-20
0
0
0
0
0
0
0
0
0
0
0
0
0
0
0
0
0
0
0
0
0
0
0
0
0
0
0
0
0
0
0
0
0
0
0
0
0
0
0
0
0
0
0
0
0
0
0
0
0
9.35627e-07
8.8105e-07
8.02362e-07
6.1254e-07
3.96356e-07
2.32684e-07
9.76772e-08
1.29652e-07
1.07681e-07
8.61556e-08
7.31749e-08
6.47727e-08
6.05855e-08
6.30301e-08
6.98161e-08
8.69948e-08
1.59022e-07
4.15993e-07
1.00905e-06
2.48183e-06
3.58441e-06
6.20865e-06
3.92183e-05
1.18716e-05
1.40869e-05
1.6552e-05
1.87146e-05
2.02518e-05
2.16991e-05
2.41343e-05
2.77293e-05
3.10157e-05
3.18785e-05
6.96636e-05
7.54542e-05
1.48533e-05
2.369e-05
3.26276e-05
4.18407e-05
7.42801e-05
0.000108532
9.02986e-05
3.35194e-05
2.66908e-06
9.52757e-09
1.00709e-11
3.01115e-14
1.16668e-18
1.51323e-19
5.79626e-20
2.06559e-20
0
0
0
0
0
0
0
0
0
0
0
0
0
0
0
0
0
0
0
0
0
0
0
0
0
0
0
0
0
0
0
0
0
0
0
0
0
0
0
0
0
0
0
0
0
0
0
0
0
9.05327e-07
7.61498e-07
5.72517e-07
5.44115e-07
2.94307e-07
1.66915e-07
1.0409e-07
5.81212e-08
4.07088e-08
3.28911e-08
2.81557e-08
2.32825e-08
1.92531e-08
2.26539e-08
3.53652e-08
5.36756e-08
8.94416e-08
2.27229e-07
6.46966e-07
2.03276e-06
3.73354e-06
6.1697e-06
9.412e-06
1.19122e-05
3.76605e-05
1.45936e-05
1.56052e-05
3.47364e-05
1.76861e-05
1.86903e-05
2.09835e-05
2.33816e-05
2.41786e-05
2.16083e-05
1.12529e-05
1.37966e-05
2.33647e-05
3.00333e-05
3.76316e-05
5.72587e-05
8.20875e-05
7.41884e-05
1.92578e-05
3.16188e-06
3.65223e-09
9.48481e-13
1.52949e-14
7.33968e-19
1.14319e-19
4.22167e-20
4.90863e-37
0
0
0
0
0
0
0
0
0
0
0
0
0
0
0
0
0
0
0
0
0
0
0
0
0
0
0
0
0
0
0
0
0
0
0
0
0
0
0
0
0
0
0
0
0
0
0
0
0
8.16233e-07
5.83354e-07
4.31416e-07
4.01066e-07
2.76247e-07
1.15022e-07
5.92247e-08
4.06939e-08
1.83341e-08
1.46495e-08
1.21607e-08
8.32196e-09
6.61065e-09
1.08635e-08
1.97893e-08
3.47915e-08
5.82901e-08
1.24814e-07
3.70406e-07
1.14322e-06
6.96544e-06
5.03482e-06
7.4191e-06
1.00585e-05
3.09179e-05
1.21003e-05
1.27357e-05
1.42145e-05
1.37699e-05
1.4059e-05
1.55289e-05
1.71135e-05
1.77836e-05
1.47707e-05
9.24102e-06
1.4694e-05
2.21688e-05
2.7356e-05
3.38069e-05
5.42991e-05
4.13063e-05
5.72729e-05
9.4802e-06
3.83782e-07
1.31307e-09
3.78385e-13
7.10724e-15
4.56807e-19
8.51526e-20
3.46738e-20
0
0
0
0
0
0
0
0
0
0
0
0
0
0
0
0
0
0
0
0
0
0
0
0
0
0
0
0
0
0
0
0
0
0
0
0
0
0
0
0
0
0
0
0
0
0
0
0
0
0
4.95421e-07
2.77068e-07
2.94468e-07
1.92332e-07
1.6155e-07
1.07421e-07
5.74876e-08
2.73557e-08
1.11247e-08
7.42253e-09
5.98668e-09
3.00207e-09
3.26449e-09
5.60984e-09
1.11308e-08
2.24391e-08
4.10764e-08
7.60367e-08
2.00619e-07
6.00808e-07
1.77376e-06
3.46618e-06
5.0565e-06
7.601e-06
9.17308e-06
9.83669e-06
3.2698e-05
1.06225e-05
1.02257e-05
1.02518e-05
1.13953e-05
1.24525e-05
1.26679e-05
1.15952e-05
1.05744e-05
1.47769e-05
1.9991e-05
2.3988e-05
3.10076e-05
5.18471e-05
6.30095e-05
4.15355e-05
3.951e-06
1.18093e-07
4.14062e-10
1.53725e-13
2.66217e-15
2.80605e-19
6.64003e-20
1.15519e-20
0
0
0
0
0
0
0
0
0
0
0
0
0
0
0
0
0
0
0
0
0
0
0
0
0
0
0
0
0
0
0
0
0
0
0
0
0
0
0
0
0
0
0
0
0
0
0
0
0
0
1.08705e-07
9.53534e-08
1.13478e-07
1.13201e-07
8.53625e-08
5.16335e-08
2.79103e-08
1.43765e-08
5.41882e-09
4.38302e-09
3.44632e-09
1.286e-09
1.83926e-09
3.16997e-09
6.493e-09
1.43104e-08
2.89351e-08
5.25192e-08
1.12062e-07
2.98348e-07
7.50011e-07
2.0532e-06
3.72214e-06
5.6378e-06
7.03102e-06
1.76108e-05
1.88153e-05
7.51526e-06
7.2039e-06
7.27766e-06
1.45576e-05
8.98635e-06
7.98638e-06
9.64318e-06
1.02927e-05
1.28898e-05
1.73199e-05
2.03e-05
2.97045e-05
4.8151e-05
5.12591e-05
2.59283e-05
1.39873e-06
3.7043e-07
9.52185e-11
6.74592e-14
3.57267e-16
1.99182e-19
4.71881e-20
6.39336e-23
5.79295e-27
0
0
0
0
0
0
0
0
0
0
0
0
0
0
0
0
0
0
0
0
0
0
0
0
0
0
0
0
0
0
0
0
0
0
0
0
0
0
0
0
0
0
0
0
0
0
0
0
0
3.93671e-08
2.24191e-08
1.70824e-08
1.69766e-08
1.54834e-08
1.21599e-08
8.40464e-09
5.09415e-09
2.17318e-09
2.41832e-09
1.98328e-09
6.99022e-10
1.04748e-09
1.77034e-09
3.49914e-09
7.71752e-09
1.68805e-08
3.25972e-08
5.62655e-08
1.04729e-07
2.11223e-07
7.42837e-07
1.67437e-06
2.75947e-06
3.73837e-06
3.95933e-06
3.88694e-06
3.81392e-06
3.69882e-06
3.81893e-06
4.58836e-06
5.58631e-06
6.02898e-06
5.98962e-06
6.87959e-06
9.30407e-06
1.3532e-05
1.52614e-05
2.79986e-05
3.9605e-05
3.39042e-05
9.19145e-06
1.70398e-06
2.8629e-09
9.39094e-13
1.54043e-14
6.65786e-19
9.33735e-20
4.44219e-27
0
0
0
0
0
0
0
0
0
0
0
0
0
0
0
0
0
0
0
0
0
0
0
0
0
0
0
0
0
0
0
0
0
0
0
0
0
0
0
0
0
0
0
0
0
0
0
0
0
0
0
2.5698e-09
1.31045e-09
1.14646e-09
1.05633e-09
1.33898e-09
1.64992e-09
1.64613e-09
1.19297e-09
1.1025e-09
1.39057e-09
1.34363e-09
7.9829e-10
5.77558e-10
9.98815e-10
1.89435e-09
3.90852e-09
8.25692e-09
1.6e-08
2.68098e-08
3.94723e-08
5.83555e-08
1.82382e-07
4.43819e-07
7.76482e-07
1.06937e-06
1.22957e-06
1.31243e-06
1.40223e-06
1.27259e-06
1.04574e-06
1.08931e-06
1.51048e-06
1.60884e-06
2.22118e-06
3.34501e-06
5.73585e-06
9.14613e-06
1.23207e-05
2.32592e-05
2.60817e-05
1.4068e-05
4.06457e-06
4.43395e-07
2.89905e-10
1.26455e-13
3.13592e-15
2.34528e-19
5.74146e-22
0
0
0
0
0
0
0
0
0
0
0
0
0
0
0
0
0
0
0
0
0
0
0
0
0
0
0
0
0
0
0
0
0
0
0
0
0
0
0
0
0
0
0
0
0
0
0
0
0
0
0
0
1.43542e-10
1.64839e-10
9.6434e-11
9.23792e-11
1.28096e-10
2.42799e-10
4.01786e-10
4.35688e-10
6.82032e-10
9.08928e-10
9.53516e-10
7.18243e-10
3.27896e-10
5.71412e-10
1.05809e-09
2.0439e-09
3.99215e-09
7.35619e-09
1.19364e-08
1.67093e-08
2.05024e-08
3.23943e-08
7.78378e-08
1.48369e-07
2.14923e-07
2.34049e-07
2.04203e-07
1.54265e-07
1.73404e-07
1.81064e-07
2.24848e-07
3.62519e-07
6.61084e-07
1.03117e-06
1.86868e-06
3.86165e-06
5.30666e-06
1.1386e-05
1.53716e-05
1.18988e-05
3.26648e-06
1.58477e-07
4.40744e-09
1.61227e-12
2.38404e-14
2.01882e-16
1.12677e-19
1.90616e-36
0
0
0
0
0
0
0
0
0
0
0
0
0
0
0
0
0
0
0
0
0
0
0
0
0
0
0
0
0
0
0
0
0
0
0
0
0
0
0
0
0
0
0
0
0
0
0
0
0
0
0
0
1.56229e-11
3.34652e-11
3.86933e-11
5.15993e-11
1.18468e-10
2.53848e-10
4.10408e-10
4.23805e-10
5.07334e-10
6.42335e-10
6.47888e-10
4.66389e-10
1.95971e-10
3.16685e-10
5.76618e-10
1.05111e-09
1.90172e-09
3.25792e-09
5.04072e-09
6.87189e-09
8.29906e-09
9.36652e-09
1.04591e-08
1.29971e-08
1.75682e-08
2.62421e-08
3.50864e-08
4.59222e-08
6.29665e-08
7.79764e-08
1.04578e-07
1.33851e-07
3.45049e-07
6.20094e-07
1.30869e-06
2.77339e-06
3.88442e-06
8.11328e-06
7.06312e-06
2.92886e-06
2.94118e-07
1.80192e-08
3.91937e-10
1.65246e-13
4.16568e-15
3.17917e-19
4.06636e-20
0
0
0
0
0
0
0
0
0
0
0
0
0
0
0
0
0
0
0
0
0
0
0
0
0
0
0
0
0
0
0
0
0
0
0
0
0
0
0
0
0
0
0
0
0
0
0
0
0
0
0
0
0
0
1.82977e-11
5.39658e-11
1.37833e-10
2.91493e-10
5.10805e-10
7.46071e-10
7.82543e-10
4.31045e-10
4.75405e-10
4.04055e-10
1.80835e-10
1.17227e-10
1.80744e-10
3.0546e-10
5.36258e-10
9.06243e-10
1.45456e-09
2.17782e-09
2.97384e-09
3.70261e-09
4.22235e-09
4.57548e-09
5.10279e-09
6.09084e-09
8.09538e-09
1.10006e-08
1.53089e-08
2.32761e-08
3.38346e-08
5.15195e-08
7.5816e-08
2.46918e-07
4.93775e-07
1.07619e-06
1.54158e-06
3.57782e-06
4.15343e-06
1.93296e-06
2.78815e-07
1.99545e-08
1.52592e-09
1.25723e-12
2.13291e-14
1.92204e-16
1.25236e-19
1.06755e-26
0
0
0
0
0
0
0
0
0
0
0
0
0
0
0
0
0
0
0
0
0
0
0
0
0
0
0
0
0
0
0
0
0
0
0
0
0
0
0
0
0
0
0
0
0
0
0
0
0
0
0
0
0
0
2.0507e-11
2.38906e-10
5.84894e-10
1.0762e-09
1.36016e-09
1.12648e-09
1.14286e-09
4.82047e-10
3.45601e-10
2.0879e-10
5.83336e-11
8.89273e-11
1.34749e-10
2.05872e-10
3.2943e-10
5.02592e-10
7.38885e-10
1.04305e-09
1.37003e-09
1.70367e-09
1.95705e-09
2.10362e-09
2.17755e-09
2.21143e-09
2.4234e-09
2.57224e-09
3.51266e-09
7.58485e-09
1.74017e-08
3.35613e-08
7.71008e-08
2.56232e-07
4.47651e-07
7.67594e-07
1.31709e-06
1.93192e-06
1.16747e-06
3.55047e-07
1.76324e-08
1.43282e-09
4.64729e-12
7.76229e-14
1.94551e-15
2.35234e-19
6.1831e-22
0
0
0
0
0
0
0
0
0
0
0
0
0
0
0
0
0
0
0
0
0
0
0
0
0
0
0
0
0
0
0
0
0
0
0
0
0
0
0
0
0
0
0
0
0
0
0
0
0
0
0
0
0
0
0
3.25857e-11
7.98813e-10
1.61433e-09
2.52419e-09
2.51039e-09
2.35141e-09
1.1204e-09
5.29312e-10
2.24853e-10
7.74108e-11
5.0969e-11
6.9044e-11
8.98177e-11
1.14764e-10
1.48571e-10
1.89347e-10
2.41224e-10
3.22255e-10
4.43173e-10
5.97864e-10
7.61803e-10
8.68067e-10
8.35665e-10
6.13318e-10
4.43743e-10
3.77496e-10
3.5125e-10
4.28964e-09
1.39696e-08
3.05153e-08
9.30269e-08
1.6975e-07
3.24742e-07
5.55232e-07
8.43221e-07
5.81437e-07
1.6379e-07
3.58226e-08
1.26257e-09
5.78588e-12
1.97797e-13
5.73201e-15
5.16939e-19
9.98873e-20
0
0
0
0
0
0
0
0
0
0
0
0
0
0
0
0
0
0
0
0
0
0
0
0
0
0
0
0
0
0
0
0
0
0
0
0
0
0
0
0
0
0
0
0
0
0
0
0
0
0
0
0
0
0
0
0
0
6.28691e-10
2.04917e-09
3.59112e-09
3.75611e-09
2.5336e-09
9.95261e-10
3.20024e-10
1.3293e-10
2.66299e-11
3.54216e-11
3.7346e-11
3.08062e-11
8.79532e-12
8.04671e-12
2.06836e-11
4.7946e-11
1.01685e-10
1.86813e-10
3.15951e-10
4.60042e-10
5.82014e-10
5.90023e-10
4.59279e-10
2.9496e-10
2.48162e-10
2.37456e-10
6.20193e-09
1.74433e-08
3.09653e-08
4.5364e-08
1.40561e-07
2.60182e-07
3.32445e-07
3.0227e-07
9.4382e-08
8.80274e-09
3.03912e-09
5.93003e-12
2.36796e-13
9.65542e-15
1.10539e-18
1.77977e-19
2.94925e-20
0
0
0
0
0
0
0
0
0
0
0
0
0
0
0
0
0
0
0
0
0
0
0
0
0
0
0
0
0
0
0
0
0
0
0
0
0
0
0
0
0
0
0
0
0
0
0
0
0
0
0
0
0
0
0
0
0
0
1.2054e-09
6.33092e-10
4.01949e-10
5.5365e-10
8.05385e-10
1.67862e-10
4.73264e-11
1.50618e-11
1.6385e-11
5.82245e-12
6.87271e-13
2.20982e-12
6.3363e-12
1.63828e-11
3.99904e-11
8.49309e-11
1.63212e-10
2.7714e-10
4.13993e-10
5.18584e-10
5.09509e-10
3.55515e-10
1.79608e-10
1.25751e-10
2.67649e-09
9.2856e-09
1.49729e-08
1.68874e-08
3.53203e-08
7.77847e-08
1.02906e-07
1.10181e-07
5.60709e-08
8.34871e-09
1.048e-09
7.4668e-11
3.10987e-13
1.13393e-14
1.79338e-18
2.42175e-19
7.62425e-20
0
0
0
0
0
0
0
0
0
0
0
0
0
0
0
0
0
0
0
0
0
0
0
0
0
0
0
0
0
0
0
0
0
0
0
0
0
0
0
0
0
0
0
0
0
0
0
0
0
0
0
0
0
0
0
0
0
0
0
2.87597e-10
3.25079e-10
4.00422e-10
6.69065e-10
5.70941e-10
8.78833e-11
1.12277e-11
6.26439e-12
3.31093e-12
1.44271e-13
4.4163e-13
1.56358e-12
4.7556e-12
1.34463e-11
3.36637e-11
7.31167e-11
1.4832e-10
2.54795e-10
3.90427e-10
4.82913e-10
4.69676e-10
3.0359e-10
2.71037e-10
1.5655e-09
5.62878e-09
7.42137e-09
7.30779e-09
6.82277e-09
1.55319e-08
1.85934e-08
2.10211e-08
1.81857e-08
9.07867e-09
1.54924e-09
7.97094e-12
6.98191e-13
1.74189e-14
2.29572e-18
3.20357e-19
8.77033e-20
4.13977e-27
0
0
0
0
0
0
0
0
0
0
0
0
0
0
0
0
0
0
0
0
0
0
0
0
0
0
0
0
0
0
0
0
0
0
0
0
0
0
0
0
0
0
0
0
0
0
0
0
0
0
0
0
0
0
0
0
0
0
0
0
1.95784e-10
3.66484e-10
8.07143e-10
6.35042e-10
5.94999e-11
9.60428e-13
1.76566e-12
2.62578e-14
8.26564e-14
2.80034e-13
1.06762e-12
3.54193e-12
1.04926e-11
2.73095e-11
6.4242e-11
1.31528e-10
2.36187e-10
3.6215e-10
4.59823e-10
5.17811e-10
6.36324e-10
1.02776e-09
2.0045e-09
3.09973e-09
3.38048e-09
3.3351e-09
3.75541e-09
3.98601e-09
3.22054e-09
4.15221e-09
3.5115e-09
2.17114e-09
1.29067e-10
5.03598e-13
3.06852e-14
3.34267e-18
3.87984e-19
1.07241e-19
1.65263e-26
0
0
0
0
0
0
0
0
0
0
0
0
0
0
0
0
0
0
0
0
0
0
0
0
0
0
0
0
0
0
0
0
0
0
0
0
0
0
0
0
0
0
0
0
0
0
0
0
0
0
0
0
0
0
0
0
0
0
0
0
0
0
2.9387e-10
6.07376e-10
5.61202e-10
4.42396e-11
6.04583e-13
2.10845e-13
1.19013e-14
4.4892e-14
1.63285e-13
6.58978e-13
2.39463e-12
7.42556e-12
2.11872e-11
5.17299e-11
1.09712e-10
2.00999e-10
3.17442e-10
5.75204e-10
8.40584e-10
9.85396e-10
1.18033e-09
1.51522e-09
1.75696e-09
1.96778e-09
2.19848e-09
2.28604e-09
2.06135e-09
8.80486e-10
6.60315e-10
6.27844e-10
2.28819e-10
1.03246e-12
3.86202e-14
7.6565e-16
5.25075e-19
1.43878e-19
5.90532e-22
0
0
0
0
0
0
0
0
0
0
0
0
0
0
0
0
0
0
0
0
0
0
0
0
0
0
0
0
0
0
0
0
0
0
0
0
0
0
0
0
0
0
0
0
0
0
0
0
0
0
0
0
0
0
0
0
0
0
0
0
0
0
0
0
0
4.27201e-10
3.17902e-11
3.29394e-13
1.09116e-15
4.37554e-15
2.15799e-14
8.73597e-14
3.63158e-13
1.46424e-12
4.94132e-12
1.4272e-11
3.72406e-11
7.96695e-11
1.52387e-10
3.94666e-10