/*--------------------------------*- C++ -*----------------------------------*\
  =========                 |
  \\      /  F ield         | OpenFOAM: The Open Source CFD Toolbox
   \\    /   O peration     | Website:  https://openfoam.org
    \\  /    A nd           | Version:  6
     \\/     M anipulation  |
\*---------------------------------------------------------------------------*/
FoamFile
{
    version     2.0;
    format      ascii;
    class       volScalarField;
    location    "0.005";
    object      CH3CH2O;
}
// * * * * * * * * * * * * * * * * * * * * * * * * * * * * * * * * * * * * * //

dimensions      [0 0 0 0 0 0 0];

internalField   nonuniform List<scalar> 
8000
(
2.16267e-31
1.15641e-26
9.03508e-26
1.39446e-24
3.52124e-23
1.0821e-21
2.29914e-20
2.49297e-19
1.35692e-18
4.70664e-18
1.38044e-17
3.2765e-17
6.48302e-17
1.00075e-16
1.04365e-16
9.92741e-17
1.41995e-16
4.08824e-16
1.94881e-15
1.80364e-14
5.35935e-13
1.83051e-10
4.10253e-08
4.65921e-08
2.10781e-07
5.02759e-07
5.92808e-07
5.45476e-07
4.38518e-07
3.26829e-07
2.5639e-07
2.28557e-07
1.903e-07
1.86345e-07
1.5683e-07
1.43723e-07
1.35837e-07
1.29935e-07
1.28463e-07
1.21151e-07
1.33511e-07
1.23937e-07
9.12697e-08
8.02199e-08
1.35556e-07
1.66989e-07
3.10391e-08
9.48775e-09
1.02e-09
1.26815e-12
2.33292e-15
6.30332e-17
1.37324e-18
0
0
0
0
0
0
0
0
0
0
0
0
0
0
0
0
0
0
0
0
0
0
0
0
0
0
0
0
0
0
0
0
0
0
0
0
0
0
0
0
0
0
0
0
0
0
0
6.54411e-30
2.59354e-25
6.61336e-25
7.57609e-24
1.19254e-22
3.22794e-21
7.79599e-20
1.10639e-18
8.54513e-18
3.69738e-17
9.89335e-17
1.8956e-16
3.45653e-16
6.74142e-16
6.36973e-16
4.193e-16
4.65179e-16
1.14725e-15
4.01159e-15
2.88939e-14
8.06142e-13
4.14206e-10
1.27802e-06
1.35475e-07
2.85572e-07
6.59214e-07
6.46552e-07
5.56802e-07
4.63881e-07
3.25669e-07
2.49526e-07
2.24339e-07
1.89767e-07
1.87372e-07
1.57982e-07
1.5039e-07
1.35097e-07
1.36346e-07
1.27164e-07
1.45736e-07
1.44978e-07
1.22568e-07
9.05586e-08
7.97485e-08
1.34576e-07
1.89988e-07
3.60047e-08
6.7281e-09
1.60211e-09
5.35973e-13
2.78181e-18
1.18283e-20
1.20619e-18
0
0
0
0
0
0
0
0
0
0
0
0
0
0
0
0
0
0
0
0
0
0
0
0
0
0
0
0
0
0
0
0
0
0
0
0
0
0
0
0
0
0
0
0
0
0
0
3.76494e-26
5.82493e-09
1.75889e-25
8.97825e-09
1.0727e-21
1.80462e-20
3.58926e-19
9.19379e-18
4.18798e-08
8.49543e-16
2.58691e-15
4.26762e-15
5.15169e-15
1.08562e-14
3.74876e-08
3.0594e-08
2.37134e-15
7.07679e-15
1.95002e-14
7.0923e-14
7.01938e-13
9.49802e-11
3.10691e-08
3.0641e-08
1.41167e-07
5.33111e-07
4.95442e-07
5.09682e-07
3.92876e-07
2.74212e-07
2.25177e-07
2.16196e-07
1.8972e-07
1.9007e-07
1.5993e-07
1.5356e-07
1.39417e-07
1.33753e-07
1.32872e-07
1.42175e-07
1.41271e-07
1.31533e-07
9.53113e-08
8.24451e-08
1.13514e-07
2.2243e-07
1.56293e-06
2.72103e-09
4.4786e-07
4.52789e-13
1.38861e-15
4.79774e-17
3.66264e-29
0
0
0
0
0
0
0
0
0
0
0
0
0
0
0
0
0
0
0
0
0
0
0
0
0
0
0
0
0
0
0
0
0
0
0
0
0
0
0
0
0
0
0
0
0
0
0
6.20881e-30
5.13135e-24
3.75577e-22
6.4543e-21
4.51228e-20
1.59755e-19
1.30292e-18
2.60268e-17
6.45074e-16
4.3508e-08
1.50005e-13
2.08634e-13
1.82017e-13
4.64394e-08
6.47331e-15
4.3729e-15
1.04839e-14
9.56992e-14
8.39727e-08
8.03077e-13
4.21045e-12
1.79982e-07
1.74883e-09
8.93297e-09
5.8034e-08
2.43653e-07
3.82302e-07
3.78914e-07
2.97869e-07
2.23165e-06
2.1249e-07
2.14825e-07
1.92678e-07
1.94491e-07
1.61859e-07
1.51693e-07
1.43058e-07
1.38777e-07
1.27953e-07
1.50206e-07
1.36098e-07
1.27068e-07
9.26978e-08
8.1012e-08
1.11433e-07
2.0635e-07
2.07742e-08
3.36437e-10
7.24606e-12
3.42303e-14
5.23122e-16
2.99068e-17
0
0
0
0
0
0
0
0
0
0
0
0
0
0
0
0
0
0
0
0
0
0
0
0
0
0
0
0
0
0
0
0
0
0
0
0
0
0
0
0
0
0
0
0
0
0
0
0
1.03641e-27
9.82864e-24
2.02437e-08
1.91767e-19
3.31419e-08
2.28769e-18
6.02876e-18
2.62233e-08
1.22288e-15
4.84057e-08
2.64573e-08
3.49928e-07
9.94275e-08
6.00358e-14
1.17383e-14
3.87364e-08
5.94092e-14
1.04736e-07
8.49367e-12
1.16195e-11
1.44931e-07
1.86161e-07
7.29313e-10
3.05833e-07
7.18938e-07
1.42136e-07
3.06483e-07
5.28494e-07
4.15393e-07
2.78487e-07
2.26675e-07
2.24247e-07
1.99178e-07
1.76185e-07
1.69692e-07
2.53297e-07
1.56432e-07
1.42274e-07
1.6341e-07
1.4272e-07
1.29722e-07
1.21708e-07
1.10054e-07
8.34832e-08
1.09166e-07
1.9908e-07
1.4059e-08
6.47613e-11
4.85067e-13
5.71519e-15
1.73645e-16
6.11772e-18
0
0
0
0
0
0
0
0
0
0
0
0
0
0
0
0
0
0
0
0
0
0
0
0
0
0
0
0
0
0
0
0
0
0
0
0
0
0
0
0
0
0
0
0
0
0
0
0
3.64826e-26
1.61344e-24
3.35434e-20
1.57918e-08
1.91326e-17
2.1354e-08
1.27391e-17
4.26252e-17
3.71303e-16
7.43086e-15
1.25868e-13
1.53652e-13
4.82207e-14
1.28521e-14
1.09897e-14
4.10941e-14
4.97829e-13
1.50735e-07
3.29455e-10
2.09396e-07
1.82168e-10
2.25633e-07
1.02535e-09
3.67055e-07
1.19799e-06
1.39519e-07
2.2206e-07
1.96962e-06
1.84604e-06
2.22457e-07
2.17748e-07
2.32909e-07
1.04881e-06
1.80058e-07
1.72735e-07
1.58591e-07
1.49716e-07
1.63374e-07
1.54196e-07
1.33936e-07
1.22402e-07
1.15675e-07
1.17238e-07
8.1476e-08
1.07139e-07
2.10391e-07
1.69177e-08
3.71961e-11
1.27776e-13
2.28638e-15
3.51654e-17
2.80388e-21
0
0
0
0
0
0
0
0
0
0
0
0
0
0
0
0
0
0
0
0
0
0
0
0
0
0
0
0
0
0
0
0
0
0
0
0
0
0
0
0
0
0
0
0
0
0
0
0
3.36172e-26
2.03851e-23
5.04817e-21
1.05858e-19
8.7527e-19
3.54358e-18
3.40685e-08
1.01731e-16
4.85749e-16
1.66395e-15
3.17494e-08
3.73966e-08
3.38621e-08
1.03129e-14
2.99438e-14
2.25199e-13
2.06288e-12
1.30596e-10
3.07778e-07
2.90252e-09
1.46475e-07
1.60391e-09
1.7955e-07
2.29153e-08
1.70292e-06
2.48233e-07
1.86287e-07
1.97514e-07
1.83023e-07
2.00451e-07
2.33391e-07
2.52074e-07
2.18115e-07
1.82671e-07
1.68779e-07
1.60824e-07
1.50899e-07
1.6804e-07
1.43766e-07
7.88628e-08
1.14355e-07
1.09079e-07
1.12265e-07
7.9729e-08
1.05374e-07
2.35577e-07
2.51214e-08
5.71201e-11
1.23711e-13
1.35484e-15
3.70016e-20
5.20891e-21
0
0
0
0
0
0
0
0
0
0
0
0
0
0
0
0
0
0
0
0
0
0
0
0
0
0
0
0
0
0
0
0
0
0
0
0
0
0
0
0
0
0
0
0
0
0
0
0
6.46866e-09
7.60211e-09
4.31238e-21
1.16744e-19
8.43551e-19
2.9141e-08
8.3941e-17
1.77888e-15
4.04233e-08
6.62641e-15
5.23906e-15
5.05585e-15
8.72743e-15
5.52659e-14
6.95968e-08
1.04568e-07
2.02244e-07
9.98452e-08
6.22901e-08
5.79028e-07
9.25581e-09
9.24794e-09
3.61153e-07
3.65566e-08
1.60899e-07
1.59417e-06
1.19805e-07
1.36351e-07
1.7523e-07
2.4311e-07
2.84117e-07
2.42026e-07
2.04081e-07
1.81394e-07
1.68693e-07
1.61505e-07
1.69747e-07
1.54986e-07
1.32353e-07
1.15084e-07
1.05625e-07
1.01923e-07
1.07654e-07
8.28395e-08
1.03946e-07
2.66719e-07
3.56982e-08
3.67656e-07
1.28874e-13
4.22448e-10
6.1029e-12
2.99016e-21
0
0
0
0
0
0
0
0
0
0
0
0
0
0
0
0
0
0
0
0
0
0
0
0
0
0
0
0
0
0
0
0
0
0
0
0
0
0
0
0
0
0
0
0
0
0
0
0
7.0029e-09
1.66405e-08
3.96178e-20
2.03432e-18
2.36043e-08
3.87022e-17
3.70471e-08
2.00694e-14
8.37786e-08
7.91772e-14
5.47307e-08
5.12883e-08
5.39625e-14
2.04749e-13
8.84743e-13
1.47573e-07
2.28313e-07
2.22255e-07
1.45435e-06
7.93352e-08
3.51777e-08
6.10037e-07
3.66498e-08
8.90934e-07
1.27322e-06
1.11038e-07
1.10719e-07
1.42773e-07
2.32512e-07
3.25335e-07
6.8479e-07
5.6874e-07
2.0636e-07
1.88431e-07
1.75419e-07
1.58609e-07
1.70289e-07
1.40751e-07
1.20171e-07
1.05135e-07
6.91387e-08
6.8824e-08
1.02875e-07
8.1561e-08
6.37017e-07
1.3501e-06
4.16367e-08
5.38951e-11
7.3731e-14
4.01101e-17
2.75065e-20
1.35658e-21
0
0
0
0
0
0
0
0
0
0
0
0
0
0
0
0
0
0
0
0
0
0
0
0
0
0
0
0
0
0
0
0
0
0
0
0
0
0
0
0
0
0
0
0
0
0
0
0
1.66354e-26
1.21067e-08
1.60275e-08
3.22604e-08
2.20906e-17
3.54224e-08
1.67963e-15
1.54698e-14
2.44607e-13
7.49952e-08
1.16201e-12
2.5923e-12
9.58836e-08
1.34367e-07
2.33489e-07
1.94236e-07
1.75025e-10
8.30378e-09
3.16536e-07
1.52646e-07
9.90158e-08
1.4385e-07
1.15658e-07
1.43044e-07
1.43326e-07
1.31158e-07
1.47127e-07
1.79902e-07
2.47367e-07
1.8338e-06
2.85732e-07
2.33064e-07
5.20329e-07
1.77346e-07
1.73122e-07
1.68125e-07
1.53203e-07
1.25523e-07
1.07502e-07
9.50915e-08
7.82903e-08
8.84311e-08
9.82984e-08
8.07341e-08
1.08479e-07
2.83222e-07
9.13931e-07
2.41966e-11
4.08e-14
2.58431e-19
3.15662e-20
1.50615e-21
0
0
0
0
0
0
0
0
0
0
0
0
0
0
0
0
0
0
0
0
0
0
0
0
0
0
0
0
0
0
0
0
0
0
0
0
0
0
0
0
0
0
0
0
0
0
0
0
7.8002e-09
8.62744e-20
2.36049e-18
2.7412e-17
3.02713e-16
6.84701e-08
4.79045e-08
7.28929e-08
1.00566e-11
3.35799e-11
9.34785e-11
1.40031e-07
2.3157e-10
1.78846e-07
1.6535e-10
2.01156e-10
5.48845e-10
5.34992e-07
1.58363e-06
1.39196e-06
1.99456e-07
1.27934e-06
2.34034e-07
1.27083e-06
1.2323e-06
2.02053e-07
2.24565e-07
2.46866e-07
2.98902e-07
3.34225e-07
2.83039e-07
2.28829e-07
2.05047e-07
1.78721e-07
1.68447e-07
1.70018e-07
1.36131e-07
1.42948e-07
9.47624e-08
8.47205e-08
8.07086e-08
8.17498e-08
9.37074e-08
7.58136e-08
1.12328e-07
2.90303e-07
1.83913e-08
1.1043e-11
2.30951e-14
3.10957e-11
1.98391e-20
1.61705e-21
0
0
0
0
0
0
0
0
0
0
0
0
0
0
0
0
0
0
0
0
0
0
0
0
0
0
0
0
0
0
0
0
0
0
0
0
0
0
0
0
0
0
0
0
0
0
0
0
1.54148e-21
1.44506e-17
4.78795e-16
1.01401e-07
3.15445e-13
1.20489e-07
9.19248e-08
1.29607e-10
7.87787e-09
7.03963e-09
7.10008e-09
6.95144e-09
8.68357e-09
2.35568e-07
3.64627e-09
3.29942e-09
5.67825e-09
6.84776e-07
1.57097e-06
1.42026e-06
2.6606e-07
2.88479e-07
3.49876e-07
4.30436e-07
3.17577e-07
2.68471e-07
3.00787e-07
1.36929e-06
3.57205e-07
7.71137e-07
2.57147e-07
2.28514e-07
1.97358e-07
2.98148e-07
1.50871e-07
1.53911e-07
1.53038e-07
9.54063e-08
8.21752e-08
7.42352e-08
7.24942e-08
7.54961e-08
1.2125e-07
7.58538e-08
1.17746e-07
1.353e-06
6.53307e-07
2.70639e-08
1.35537e-14
1.44071e-19
2.68437e-12
2.33065e-21
1.56043e-26
0
0
0
0
0
0
0
0
0
0
0
0
0
0
0
0
0
0
0
0
0
0
0
0
0
0
0
0
0
0
0
0
0
0
0
0
0
0
0
0
0
0
0
0
0
0
0
8.91516e-19
3.26961e-13
6.43294e-12
1.63462e-07
1.70751e-07
2.35184e-07
1.87806e-09
2.74066e-07
2.90124e-07
1.03059e-06
5.96288e-07
5.29215e-07
6.42147e-08
4.75157e-07
3.10316e-08
2.40731e-08
7.12246e-07
7.41659e-08
2.15524e-07
1.35591e-06
3.98167e-07
3.73882e-07
4.3092e-07
1.26172e-06
3.63867e-07
3.24185e-07
3.32134e-07
1.40967e-06
3.23509e-07
2.82299e-07
2.4789e-07
2.18005e-07
1.96226e-07
1.62099e-07
1.32032e-07
1.33527e-07
1.85143e-07
1.83723e-07
7.01878e-08
6.40417e-08
6.45479e-08
9.89496e-08
1.32368e-07
7.6432e-08
1.24573e-07
1.45444e-06
6.43715e-09
1.2591e-08
8.7259e-15
1.28371e-16
9.54958e-21
2.37948e-21
1.04495e-21
1.56744e-25
0
0
0
0
0
0
0
0
0
0
0
0
0
0
0
0
0
0
0
0
0
0
0
0
0
0
0
0
0
0
0
0
0
0
0
0
0
0
0
0
0
0
0
0
0
0
4.1601e-15
3.87163e-07
5.06075e-07
5.10779e-07
4.01184e-08
1.20691e-06
7.18357e-07
6.56127e-08
2.10144e-07
2.28322e-07
2.25886e-07
1.98053e-07
1.80036e-07
1.54232e-07
1.21197e-07
9.00531e-08
1.05801e-07
1.46985e-06
3.22534e-07
1.33638e-06
1.41212e-06
4.64151e-07
4.4912e-07
4.4712e-07
1.305e-06
3.8574e-07
1.41505e-06
3.70285e-07
3.27834e-07
2.72727e-07
2.47585e-07
2.14071e-07
2.83796e-07
1.50207e-07
1.12507e-07
1.02773e-07
8.98335e-08
2.34198e-07
5.88466e-08
5.45267e-08
5.70089e-08
6.41682e-08
7.5416e-08
7.38885e-08
1.60509e-07
1.72522e-07
3.5703e-09
6.94984e-13
5.25714e-15
9.28817e-17
6.27502e-21
2.45716e-21
1.93988e-21
1.4407e-21
9.2837e-26
0
0
0
0
0
0
0
0
0
0
0
0
0
0
0
0
0
0
0
0
0
0
0
0
0
0
0
0
0
0
0
0
0
0
0
0
0
0
0
0
0
0
0
0
0
2.38925e-07
4.15217e-07
1.96909e-06
1.46623e-06
2.7392e-07
1.34352e-06
2.26092e-07
1.37133e-06
1.28049e-06
4.89303e-07
1.26085e-06
4.47404e-07
1.24181e-06
3.48493e-07
1.31212e-06
2.29819e-07
1.85903e-07
2.1412e-07
3.47501e-07
1.30538e-06
1.48221e-06
1.32214e-06
4.40484e-07
4.39474e-07
4.33259e-07
1.65996e-06
3.91261e-07
3.32319e-07
2.91493e-07
4.00951e-07
3.59459e-07
3.1324e-07
2.74581e-07
2.95161e-07
3.15551e-07
3.21356e-07
5.45145e-08
4.19008e-08
2.5826e-07
4.23298e-08
1.83215e-07
5.89513e-08
1.72919e-07
3.82043e-07
1.73266e-07
1.18672e-06
1.75626e-09
2.96697e-13
3.45389e-15
4.02843e-20
5.3107e-21
2.42156e-21
2.07704e-21
1.72499e-21
1.04634e-21
0
0
0
0
0
0
0
0
0
0
0
0
0
0
0
0
0
0
0
0
0
0
0
0
0
0
0
0
0
0
0
0
0
0
0
0
0
0
0
0
0
0
0
0
0
1.24026e-07
4.92666e-07
5.80783e-07
4.46213e-07
6.06765e-07
1.40878e-06
3.82525e-07
4.68317e-07
1.26305e-06
6.39252e-07
6.90791e-07
5.95449e-07
5.45187e-07
5.04446e-07
4.08886e-07
3.06731e-07
2.58624e-07
2.67773e-07
3.91365e-07
1.34641e-06
4.44676e-07
4.15431e-07
4.23627e-07
4.41655e-07
1.30618e-06
3.6823e-07
3.42368e-07
2.93112e-07
2.61137e-07
2.34417e-07
3.65546e-07
1.66642e-07
1.32574e-07
9.35973e-08
6.90456e-08
4.03496e-07
4.17312e-07
3.01085e-08
3.21145e-07
2.59198e-07
3.05575e-08
1.5698e-07
2.11396e-07
7.52269e-08
2.21321e-07
6.46459e-08
6.62102e-10
1.16579e-13
1.93119e-15
3.59812e-20
4.48682e-21
2.10875e-21
1.87028e-21
1.79819e-21
1.70943e-21
0
0
0
0
0
0
0
0
0
0
0
0
0
0
0
0
0
0
0
0
0
0
0
0
0
0
0
0
0
0
0
0
0
0
0
0
0
0
0
0
0
0
0
0
0
8.1984e-09
3.95107e-07
4.49032e-07
4.78098e-07
5.00332e-07
5.68843e-07
4.48822e-07
4.68818e-07
5.97948e-07
4.08422e-07
5.89452e-07
1.5732e-07
4.05192e-07
4.51812e-07
4.31985e-07
3.56422e-07
3.20274e-07
3.22716e-07
4.19769e-07
4.16346e-07
3.7853e-07
3.63947e-07
3.78655e-07
1.12113e-06
5.56912e-07
3.10074e-07
5.61162e-07
5.08464e-07
4.62804e-07
4.27784e-07
1.45755e-07
1.20888e-07
8.7515e-08
6.45903e-08
4.86747e-07
5.24693e-07
5.24783e-07
1.85928e-08
1.70584e-08
3.13185e-07
2.55429e-07
3.53935e-08
2.81142e-07
7.90757e-08
1.29e-06
8.68288e-07
1.07307e-07
4.85276e-14
9.52935e-16
2.98162e-20
2.86978e-21
3.73034e-24
1.00188e-26
1.28915e-25
3.28526e-29
0
0
0
0
0
0
0
0
0
0
0
0
0
0
0
0
0
0
0
0
0
0
0
0
0
0
0
0
0
0
0
0
0
0
0
0
0
0
0
0
0
0
0
0
0
6.79061e-08
4.43895e-07
2.59684e-07
2.65726e-07
3.03491e-07
1.52e-06
3.35158e-07
3.37976e-07
4.44432e-07
3.45573e-07
3.38419e-07
2.34287e-07
2.64601e-07
7.29714e-07
2.57899e-07
2.84866e-07
1.38127e-06
3.14429e-07
1.44127e-06
3.5202e-07
3.17604e-07
1.54552e-06
3.11632e-07
2.86566e-07
2.86252e-07
2.58455e-07
2.28372e-07
1.83823e-07
1.53982e-07
1.29355e-07
1.07225e-07
4.67866e-07
4.95705e-07
4.25553e-08
6.22806e-07
2.07841e-08
1.50946e-08
1.10655e-08
1.08377e-08
1.41386e-08
3.04803e-07
2.66595e-07
4.76945e-08
8.03394e-08
1.3289e-06
7.37138e-07
7.40832e-11
2.11885e-14
3.60419e-16
9.07226e-21
1.83609e-24
0
0
0
0
0
0
0
0
0
0
0
0
0
0
0
0
0
0
0
0
0
0
0
0
0
0
0
0
0
0
0
0
0
0
0
0
0
0
0
0
0
0
0
0
0
0
0
0
0
7.95061e-08
3.14633e-07
3.19996e-07
9.27567e-08
6.22001e-08
1.22409e-07
1.04891e-07
1.10523e-07
1.56063e-07
1.31015e-07
7.88142e-08
4.54264e-08
9.4006e-07
9.85011e-07
7.23752e-08
1.12722e-07
1.6255e-07
2.32293e-07
2.72418e-07
2.77105e-07
2.4934e-07
2.29692e-07
2.35829e-07
2.44415e-07
2.11241e-07
5.41984e-07
1.54175e-07
6.7017e-07
1.14705e-07
8.6251e-08
5.50624e-07
5.62995e-07
3.99081e-08
6.49367e-07
6.57374e-07
1.33548e-08
9.01426e-09
6.73936e-09
4.81497e-07
9.61403e-09
3.5999e-07
2.55178e-08
4.56136e-08
9.45203e-07
1.41728e-06
6.52217e-09
1.5264e-11
9.42447e-15
2.14342e-16
5.06153e-21
0
0
0
0
0
0
0
0
0
0
0
0
0
0
0
0
0
0
0
0
0
0
0
0
0
0
0
0
0
0
0
0
0
0
0
0
0
0
0
0
0
0
0
0
0
0
0
0
0
0
7.98384e-08
1.79917e-07
3.9481e-07
4.00708e-07
1.60481e-07
5.92232e-08
5.10585e-08
3.55819e-08
1.47047e-08
1.17322e-08
9.16881e-09
7.42332e-09
7.01071e-09
5.20574e-09
1.82228e-10
8.80151e-09
4.52379e-08
1.15162e-07
1.75331e-07
1.73424e-06
1.74998e-07
1.81321e-06
1.67273e-07
1.70857e-07
1.65571e-07
1.20298e-07
1.01066e-07
8.78069e-08
7.36538e-08
6.15968e-07
6.20925e-07
3.856e-08
6.89023e-07
7.01866e-07
1.27214e-08
8.29225e-09
5.49033e-07
3.79424e-09
3.51697e-07
6.84862e-09
1.20762e-08
4.16434e-07
4.65552e-08
1.0915e-07
1.47416e-06
2.4849e-09
5.47937e-13
4.46791e-15
4.74016e-17
4.16859e-21
1.32533e-26
0
0
0
0
0
0
0
0
0
0
0
0
0
0
0
0
0
0
0
0
0
0
0
0
0
0
0
0
0
0
0
0
0
0
0
0
0
0
0
0
0
0
0
0
0
0
0
0
0
7.97353e-08
9.97756e-08
1.90331e-07
3.44024e-07
4.34522e-07
3.39115e-07
2.77255e-07
2.14486e-07
1.50117e-07
1.29608e-07
1.07255e-07
7.92571e-08
5.51154e-08
3.0784e-08
1.21874e-08
3.08011e-09
3.8158e-09
1.2876e-06
8.29633e-08
9.47902e-08
1.72964e-06
1.0448e-07
1.05489e-07
1.08841e-07
1.06673e-07
8.8657e-08
1.71132e-06
5.73685e-08
4.60696e-08
8.56545e-07
3.73997e-08
2.54948e-08
1.86872e-08
1.33351e-08
7.9241e-09
4.90052e-09
2.50137e-09
1.70613e-09
3.36457e-07
3.49972e-07
1.03638e-08
2.24246e-08
4.99912e-08
1.41494e-06
1.43671e-06
9.40156e-10
1.96769e-13
2.11655e-15
3.79548e-20
4.77683e-21
1.58844e-21
0
0
0
0
0
0
0
0
0
0
0
0
0
0
0
0
0
0
0
0
0
0
0
0
0
0
0
0
0
0
0
0
0
0
0
0
0
0
0
0
0
0
0
0
0
0
0
0
0
7.97987e-08
8.30724e-08
9.97877e-08
1.57539e-07
2.9297e-07
4.02485e-07
4.15191e-07
3.85714e-07
3.28876e-07
2.60408e-07
1.89488e-07
1.29915e-07
8.44537e-08
5.0015e-08
2.46401e-08
8.45893e-09
9.55506e-10
4.45497e-09
2.62557e-08
1.4196e-06
1.49425e-06
6.2557e-08
6.57861e-08
2.008e-06
2.02809e-06
5.25085e-08
4.70823e-08
4.17389e-08
3.12401e-08
1.38631e-06
1.31055e-06
2.01356e-08
1.47024e-08
1.06517e-08
9.0496e-07
3.61394e-09
8.95642e-10
4.96418e-07
4.19876e-07
3.84634e-09
9.6121e-09
2.23341e-08
5.62314e-08
1.64809e-07
6.25054e-08
3.84901e-10
7.18852e-14
9.79558e-16
3.23883e-20
7.01452e-21
1.98181e-21
1.31635e-21
0
0
0
0
0
0
0
0
0
0
0
0
0
0
0
0
0
0
0
0
0
0
0
0
0
0
0
0
0
0
0
0
0
0
0
0
0
0
0
0
0
0
0
0
0
0
0
0
7.9989e-08
8.04348e-08
8.2344e-08
9.12395e-08
1.33625e-07
2.08749e-07
2.42544e-07
2.48701e-07
2.21437e-07
1.65814e-07
1.22371e-07
9.04716e-08
6.55704e-08
4.48366e-08
2.69031e-08
1.24174e-08
4.03999e-09
1.44456e-11
5.19825e-09
1.41933e-08
2.33651e-08
3.33439e-08
4.18963e-08
4.43244e-08
4.12674e-08
3.10671e-08
1.98957e-06
2.6829e-08
2.51623e-08
2.30747e-08
2.08957e-08
1.5386e-06
1.52061e-06
6.97245e-09
3.90738e-09
1.91266e-09
8.12202e-10
1.68927e-10
7.45334e-10
3.10383e-09
8.58731e-09
2.29835e-08
7.63852e-08
1.74405e-07
3.10693e-08
1.56791e-10
2.9873e-14
3.08301e-16
2.51516e-20
4.05655e-21
1.9499e-21
1.40036e-21
0
0
0
0
0
0
0
0
0
0
0
0
0
0
0
0
0
0
0
0
0
0
0
0
0
0
0
0
0
0
0
0
0
0
0
0
0
0
0
0
0
0
0
0
0
0
0
0
8.02084e-08
7.98963e-08
7.81687e-08
7.40692e-08
7.35422e-08
8.23951e-08
8.76419e-08
8.47254e-08
7.78965e-08
6.40688e-08
5.3312e-08
4.53936e-08
3.80275e-08
3.04605e-08
2.20318e-08
1.29961e-08
5.64356e-09
1.57021e-09
3.29769e-10
3.78024e-09
1.25579e-06
1.59936e-08
2.37226e-08
2.73426e-08
2.52409e-08
1.9932e-08
1.7807e-08
1.81425e-08
1.83432e-08
1.76745e-08
1.57511e-08
1.56983e-06
8.28054e-09
5.09493e-09
2.47539e-09
7.75909e-10
7.05455e-07
8.36782e-10
3.57631e-10
2.55658e-09
8.24114e-09
6.83121e-07
8.96115e-08
1.58543e-07
1.36734e-08
6.08851e-11
1.42415e-14
9.42425e-17
1.25036e-20
2.96655e-21
1.88006e-21
1.85745e-22
0
0
0
0
0
0
0
0
0
0
0
0
0
0
0
0
0
0
0
0
0
0
0
0
0
0
0
0
0
0
0
0
0
0
0
0
0
0
0
0
0
0
0
0
0
0
0
0
8.02815e-08
7.86248e-08
7.27562e-08
6.37671e-08
5.00191e-08
3.56549e-08
2.44105e-08
2.17677e-08
2.26712e-08
2.23034e-08
2.10408e-08
1.98658e-08
1.8747e-08
1.76661e-08
1.56327e-08
1.16697e-08
6.48126e-09
2.6404e-09
9.46763e-11
9.40095e-10
3.76759e-09
8.10458e-09
1.16906e-08
1.52606e-08
1.55632e-08
1.74802e-06
1.72465e-06
1.27199e-08
1.3484e-08
1.32593e-08
1.17574e-08
9.17322e-09
5.77152e-09
2.98918e-09
1.11924e-09
1.88747e-10
2.80507e-10
7.13471e-10
1.39676e-09
2.19099e-09
8.44281e-09
2.68563e-08
1.22936e-07
1.40025e-06
5.45315e-09
1.97876e-11
7.30176e-15
6.75014e-20
7.45893e-21
2.42478e-21
9.77752e-22
0
0
0
0
0
0
0
0
0
0
0
0
0
0
0
0
0
0
0
0
0
0
0
0
0
0
0
0
0
0
0
0
0
0
0
0
0
0
0
0
0
0
0
0
0
0
0
0
0
7.98421e-08
7.2017e-08
6.30912e-08
4.98854e-08
3.10647e-08
1.3019e-08
5.73738e-09
5.92538e-09
7.51758e-09
8.19938e-09
8.22927e-09
8.092e-09
8.16985e-09
8.97325e-09
1.00033e-08
9.68627e-09
6.88735e-09
3.40212e-09
9.59877e-10
6.06781e-11
1.55448e-09
3.96953e-09
1.23445e-06
8.58856e-09
9.63178e-09
1.00801e-08
1.00962e-08
9.26814e-09
9.84187e-09
9.50044e-09
8.216e-09
6.26376e-09
3.61342e-09
5.53301e-07
8.70011e-07
2.12406e-11
3.46056e-10
7.1852e-10
1.25388e-09
2.04497e-09
9.11533e-09
3.64199e-08
1.33972e-07
8.94574e-08
1.93799e-09
1.99215e-12
3.97274e-15
4.18597e-20
5.28986e-21
2.01447e-21
7.10807e-22
0
0
0
0
0
0
0
0
0
0
0
0
0
0
0
0
0
0
0
0
0
0
0
0
0
0
0
0
0
0
0
0
0
0
0
0
0
0
0
0
0
0
0
0
0
0
0
0
0
7.60967e-08
5.91153e-08
4.26926e-08
2.87837e-08
1.28047e-08
3.16159e-09
1.53906e-09
2.23154e-09
3.03747e-09
3.41595e-09
3.43854e-09
3.21094e-09
3.14392e-09
4.10002e-09
6.00661e-09
7.57518e-09
6.99535e-09
4.32867e-09
1.86843e-09
8.96467e-11
4.85306e-10
1.84887e-09
2.83959e-09
4.8313e-09
1.21379e-06
7.5207e-09
7.89169e-09
1.32453e-06
6.99038e-09
6.36654e-09
5.15469e-09
3.7304e-09
1.97502e-09
7.54958e-10
2.44537e-11
5.9286e-11
4.88919e-10
7.55084e-10
1.20351e-09
3.60929e-09
1.29695e-08
4.31698e-08
1.29393e-07
9.72018e-07
7.57695e-10
1.35539e-13
1.99792e-15
2.61275e-20
3.98504e-21
1.46222e-21
0
0
0
0
0
0
0
0
0
0
0
0
0
0
0
0
0
0
0
0
0
0
0
0
0
0
0
0
0
0
0
0
0
0
0
0
0
0
0
0
0
0
0
0
0
0
0
0
0
0
6.49548e-08
3.35357e-08
1.72369e-08
8.44522e-09
2.63149e-09
6.45266e-10
7.34774e-10
1.1636e-09
1.4856e-09
1.66144e-09
1.59e-09
1.2714e-09
1.24447e-09
2.01773e-09
3.52798e-09
5.57823e-09
6.66917e-09
5.29242e-09
2.76188e-09
8.04874e-10
7.95789e-07
8.02627e-10
2.04185e-09
3.45458e-09
1.11208e-06
5.44471e-09
5.63296e-09
4.98596e-09
4.71917e-09
3.90688e-09
2.81521e-09
1.89932e-09
9.00962e-10
2.70711e-10
1.42719e-11
2.07277e-10
6.17903e-10
7.80146e-10
1.17815e-09
4.25842e-09
1.31571e-06
6.15863e-08
1.11451e-07
3.21014e-08
2.75129e-10
5.29464e-14
9.20285e-16
1.61468e-20
2.95867e-21
1.19987e-21
0
0
0
0
0
0
0
0
0
0
0
0
0
0
0
0
0
0
0
0
0
0
0
0
0
0
0
0
0
0
0
0
0
0
0
0
0
0
0
0
0
0
0
0
0
0
0
0
0
0
4.11773e-08
7.49323e-09
2.11648e-09
8.54822e-10
3.94677e-10
4.11729e-10
5.79715e-10
7.54123e-10
8.61078e-10
9.07486e-10
8.22611e-10
5.16809e-10
6.21682e-10
1.05692e-09
2.03895e-09
3.85653e-09
5.82519e-09
5.95505e-09
3.95913e-09
1.8347e-09
1.78418e-10
7.82081e-11
1.0979e-09
2.46091e-09
3.53562e-09
3.78683e-09
1.72028e-06
3.34538e-09
2.94054e-09
2.1505e-09
1.3388e-09
7.98336e-10
2.74247e-10
1.08522e-10
1.24031e-10
3.57466e-10
6.97296e-10
7.40901e-10
1.28584e-09
5.55563e-09
2.01583e-08
7.6326e-08
8.57519e-08
1.39673e-08
8.71023e-11
2.10306e-14
3.41179e-16
9.8575e-21
2.30287e-21
3.9337e-22
0
0
0
0
0
0
0
0
0
0
0
0
0
0
0
0
0
0
0
0
0
0
0
0
0
0
0
0
0
0
0
0
0
0
0
0
0
0
0
0
0
0
0
0
0
0
0
0
0
0
1.27214e-10
6.96148e-10
6.15422e-10
6.12649e-10
5.68045e-10
5.04765e-10
4.79987e-10
5.09949e-10
5.17703e-10
5.67148e-10
4.90379e-10
2.46018e-10
3.53064e-10
6.03146e-10
1.20908e-09
2.5509e-09
4.62404e-09
5.95614e-09
5.04629e-09
2.94269e-09
1.24265e-09
4.85957e-11
2.89396e-10
1.44945e-09
2.37416e-09
8.76572e-07
1.29695e-06
2.024e-09
1.58762e-09
1.06022e-09
7.11857e-07
2.39215e-10
2.32231e-11
7.45037e-11
2.02218e-10
4.16306e-10
7.21037e-10
6.37442e-10
1.73748e-09
8.52667e-09
3.13954e-08
8.64873e-08
5.68955e-08
5.37284e-07
1.98984e-11
9.0445e-15
4.52681e-17
6.97123e-21
1.63111e-21
1.97961e-25
5.94338e-32
0
0
0
0
0
0
0
0
0
0
0
0
0
0
0
0
0
0
0
0
0
0
0
0
0
0
0
0
0
0
0
0
0
0
0
0
0
0
0
0
0
0
0
0
0
0
0
0
0
1.20561e-09
9.00424e-10
7.48477e-10
6.35439e-10
4.94971e-10
3.59058e-10
2.87802e-10
2.78303e-10
2.73478e-10
3.30717e-10
2.8985e-10
1.34664e-10
2.0209e-10
3.39532e-10
6.61223e-10
1.41598e-09
2.94045e-09
4.93429e-09
5.80378e-09
4.80779e-09
3.01084e-09
1.28368e-09
1.3908e-10
1.69406e-10
8.16576e-10
9.57752e-10
8.49583e-10
6.42153e-10
4.36297e-10
2.63705e-10
9.58539e-11
9.61201e-13
1.8713e-11
7.63548e-11
2.20173e-10
4.66948e-10
7.66409e-10
4.61516e-10
3.12253e-09
1.43531e-08
4.72331e-08
7.65502e-08
9.37023e-07
5.95686e-10
1.34162e-13
2.00341e-15
2.36619e-20
3.23551e-21
4.55754e-32
0
0
0
0
0
0
0
0
0
0
0
0
0
0
0
0
0
0
0
0
0
0
0
0
0
0
0
0
0
0
0
0
0
0
0
0
0
0
0
0
0
0
0
0
0
0
0
0
0
0
0
9.21729e-11
8.5222e-11
7.96402e-11
7.69369e-11
8.40739e-11
9.04209e-11
9.88379e-11
1.12599e-10
1.49766e-10
1.98643e-10
1.98881e-10
1.29397e-10
1.12196e-10
1.93718e-10
3.64162e-10
7.36145e-10
1.50391e-09
2.74067e-09
3.99439e-09
4.32455e-09
3.54049e-09
2.29518e-09
1.03354e-09
3.24202e-10
1.40096e-10
9.08476e-11
7.89087e-11
3.06802e-11
2.13757e-11
2.69192e-11
4.22384e-11
1.56941e-11
7.21931e-13
2.76079e-11
1.57789e-10
4.36256e-10
5.97699e-10
7.4732e-10
7.35919e-09
2.65016e-08
5.47287e-08
9.54848e-07
6.2736e-07
6.07801e-11
1.71736e-14
3.98744e-16
8.20288e-21
7.31319e-24
0
0
0
0
0
0
0
0
0
0
0
0
0
0
0
0
0
0
0
0
0
0
0
0
0
0
0
0
0
0
0
0
0
0
0
0
0
0
0
0
0
0
0
0
0
0
0
0
0
0
0
0
7.47176e-12
1.19702e-11
1.0499e-11
1.24075e-11
1.67111e-11
2.53241e-11
4.01625e-11
5.93399e-11
9.68595e-11
1.33144e-10
1.4273e-10
1.12111e-10
6.3928e-11
1.11554e-10
2.05577e-10
3.92819e-10
7.51125e-10
1.33655e-09
2.03367e-09
2.51205e-09
2.46388e-09
1.99161e-09
1.34059e-09
7.63447e-10
3.65009e-10
1.24252e-10
2.7701e-11
2.99566e-11
3.09904e-11
8.59611e-12
4.90616e-12
1.72989e-11
5.27531e-12
1.40345e-11
1.24126e-10
3.85652e-10
1.54054e-10
2.4467e-09
1.39366e-08
3.42642e-08
4.04661e-08
1.44392e-08
9.08977e-10
2.35391e-13
3.11983e-15
2.52475e-17
3.90656e-21
0
0
0
0
0
0
0
0
0
0
0
0
0
0
0
0
0
0
0
0
0
0
0
0
0
0
0
0
0
0
0
0
0
0
0
0
0
0
0
0
0
0
0
0
0
0
0
0
0
0
0
0
0
1.11538e-12
2.51419e-12
3.56164e-12
5.47675e-12
1.07083e-11
2.10889e-11
3.70521e-11
5.23751e-11
7.42911e-11
9.59033e-11
9.82404e-11
7.33893e-11
3.82057e-11
6.18209e-11
1.12554e-10
2.04181e-10
3.65051e-10
6.13447e-10
9.1871e-10
1.18468e-09
1.30081e-09
1.22687e-09
1.01818e-09
7.43264e-10
4.64023e-10
2.38262e-10
1.28384e-10
1.11301e-10
6.96231e-11
3.43106e-11
1.68887e-11
6.97904e-12
6.55642e-12
1.09338e-11
1.13003e-10
2.76027e-10
2.56359e-10
5.48831e-09
1.95608e-08
2.8907e-08
1.72093e-08
3.10247e-09
8.22045e-11
2.259e-14
5.32582e-16
1.11786e-20
1.39482e-21
0
0
0
0
0
0
0
0
0
0
0
0
0
0
0
0
0
0
0
0
0
0
0
0
0
0
0
0
0
0
0
0
0
0
0
0
0
0
0
0
0
0
0
0
0
0
0
0
0
0
0
0
0
0
1.26444e-12
3.54665e-12
9.04862e-12
2.02409e-11
3.77404e-11
6.10051e-11
7.58068e-11
6.4821e-11
7.21669e-11
6.21991e-11
3.0282e-11
2.28781e-11
3.53531e-11
5.98533e-11
1.04647e-10
1.75738e-10
2.7872e-10
4.09539e-10
5.43744e-10
6.45572e-10
6.76212e-10
6.28994e-10
5.1684e-10
3.62372e-10
2.17608e-10
1.46021e-10
9.17531e-11
5.62217e-11
2.8042e-11
1.08964e-11
5.67778e-12
4.10013e-12
1.13653e-11
1.00416e-10
4.87095e-12
1.75655e-09
9.24635e-09
1.98801e-08
1.42092e-08
3.38123e-09
3.17967e-10
1.82311e-13
2.78864e-15
2.40256e-17
4.3467e-21
1.09527e-31
0
0
0
0
0
0
0
0
0
0
0
0
0
0
0
0
0
0
0
0
0
0
0
0
0
0
0
0
0
0
0
0
0
0
0
0
0
0
0
0
0
0
0
0
0
0
0
0
0
0
0
0
0
0
3.53025e-16
8.13334e-12
2.15725e-11
4.6645e-11
7.66855e-11
9.48876e-11
1.03895e-10
6.43601e-11
5.3189e-11
3.28243e-11
1.13853e-11
1.74131e-11
2.64626e-11
4.04375e-11
6.46139e-11
9.81227e-11
1.42571e-10
1.98748e-10
2.56461e-10
3.11278e-10
3.43297e-10
3.408e-10
3.00482e-10
2.23707e-10
1.4664e-10
1.08316e-10
6.55156e-11
4.04083e-11
1.91188e-11
5.68911e-12
1.02813e-11
4.32629e-14
1.45829e-11
4.44044e-11
4.96891e-10
4.00171e-09
1.03512e-08
1.42468e-08
2.91762e-09
2.96766e-10
7.04377e-13
1.04329e-14
2.47016e-16
8.23027e-21
7.75382e-24
0
0
0
0
0
0
0
0
0
0
0
0
0
0
0
0
0
0
0
0
0
0
0
0
0
0
0
0
0
0
0
0
0
0
0
0
0
0
0
0
0
0
0
0
0
0
0
0
0
0
0
0
0
0
0
6.59875e-14
1.01042e-11
3.16532e-11
6.50094e-11
9.31502e-11
1.06656e-10
8.86672e-11
5.56205e-11
3.47898e-11
1.33673e-11
1.01063e-11
1.37788e-11
1.79382e-11
2.28079e-11
2.92496e-11
3.66685e-11
4.58509e-11
6.00039e-11
8.21139e-11
1.10877e-10
1.42422e-10
1.63606e-10
1.59668e-10
1.28651e-10
9.13527e-11
7.24258e-11
4.45689e-11
2.76269e-11
1.13113e-11
1.95989e-12
1.04262e-11
1.35626e-11
9.1447e-11
3.70901e-10
1.85061e-09
5.54467e-09
6.35564e-09
4.63717e-09
2.602e-10
8.89261e-13
2.7425e-14
7.39929e-16
1.83655e-20
3.45933e-21
0
0
0
0
0
0
0
0
0
0
0
0
0
0
0
0
0
0
0
0
0
0
0
0
0
0
0
0
0
0
0
0
0
0
0
0
0
0
0
0
0
0
0
0
0
0
0
0
0
0
0
0
0
0
0
0
0
2.65895e-12
2.55407e-12
4.28881e-12
6.35232e-12
1.02275e-11
1.57802e-11
1.93374e-11
2.07791e-11
5.38171e-12
7.22872e-12
7.65821e-12
6.27264e-12
1.62075e-12
1.19431e-12
3.20503e-12
7.68543e-12
1.71802e-11
3.26837e-11
5.80229e-11
8.77195e-11
1.15274e-10
1.20767e-10
9.56461e-11
5.97991e-11
4.57115e-11
2.92441e-11
1.70749e-11
4.98434e-13
2.30684e-11
7.84885e-11
2.66828e-10
6.60069e-10
1.30409e-09
3.00883e-09
4.3207e-09
1.61994e-09
6.14621e-10
9.09629e-13
3.29679e-14
1.26138e-15
3.98911e-20
6.21181e-21
1.00656e-21
0
0
0
0
0
0
0
0
0
0
0
0
0
0
0
0
0
0
0
0
0
0
0
0
0
0
0
0
0
0
0
0
0
0
0
0
0
0
0
0
0
0
0
0
0
0
0
0
0
0
0
0
0
0
0
0
0
0
2.22626e-15
5.46966e-14
6.07425e-14
1.18989e-13
5.71566e-14
1.82716e-12
7.20403e-12
3.1108e-12
3.41494e-12
1.20672e-12
9.49849e-14
3.17504e-13
9.45428e-13
2.51219e-12
6.43412e-12
1.42849e-11
2.85096e-11
5.0633e-11
7.87136e-11
1.0232e-10
1.04149e-10
7.37734e-11
3.55029e-11
1.93282e-11
1.06543e-11
1.92545e-13
1.815e-11
1.04583e-10
3.31688e-10
8.05817e-10
1.47816e-09
2.05942e-09
2.79481e-09
1.47654e-09
2.1183e-10
1.4893e-11
4.38893e-14
1.49568e-15
6.56152e-20
8.50038e-21
2.63692e-21
0
0
0
0
0
0
0
0
0
0
0
0
0
0
0
0
0
0
0
0
0
0
0
0
0
0
0
0
0
0
0
0
0
0
0
0
0
0
0
0
0
0
0
0
0
0
0
0
0
0
0
0
0
0
0
0
0
0
0
1.64436e-13
2.25768e-14
2.25529e-14
4.71674e-13
1.77365e-12
2.1412e-12
1.64448e-12
1.30229e-12
6.92897e-13
1.91654e-14
6.04322e-14
2.23544e-13
7.04065e-13
2.07912e-12
5.45044e-12
1.21374e-11
2.59001e-11
4.6133e-11
7.416e-11
9.50085e-11
9.59518e-11
6.32287e-11
2.28577e-11
4.04208e-12
2.59626e-16
1.58704e-11
1.08943e-10
3.25468e-10
6.95943e-10
1.09235e-09
1.59963e-09
1.68301e-09
1.53695e-09
3.08982e-10
1.25266e-12
1.01222e-13
2.30023e-15
8.48289e-20
1.13197e-20
3.03636e-21
4.24727e-32
0
0
0
0
0
0
0
0
0
0
0
0
0
0
0
0
0
0
0
0
0
0
0
0
0
0
0
0
0
0
0
0
0
0
0
0
0
0
0
0
0
0
0
0
0
0
0
0
0
0
0
0
0
0
0
0
0
0
0
0
2.45168e-13
1.21268e-13
3.22034e-13
2.70476e-12
2.31381e-12
1.96816e-13
3.66325e-13
3.35886e-15
1.0878e-14
3.84697e-14
1.52476e-13
5.27398e-13
1.6329e-12
4.39605e-12
1.0709e-11
2.29583e-11
4.28348e-11
6.86809e-11
9.07302e-11
9.85416e-11
7.88887e-11
3.66795e-11
1.51772e-11
3.18851e-11
1.15364e-10
2.88772e-10
5.2764e-10
6.98329e-10
6.11988e-10
8.06193e-10
6.66588e-10
4.2794e-10
2.6239e-11
7.17128e-14
4.10709e-15
1.24795e-19
1.37822e-20
3.72293e-21
1.69555e-31
0
0
0
0
0
0
0
0
0
0
0
0
0
0
0
0
0
0
0
0
0
0
0
0
0
0
0
0
0
0
0
0
0
0
0
0
0
0
0
0
0
0
0
0
0
0
0
0
0
0
0
0
0
0
0
0
0
0
0
0
0
0
9.96425e-13
6.23002e-13
1.68056e-12
2.0858e-12
1.24056e-13
4.33646e-14
1.50721e-15
5.85894e-15
2.20812e-14
9.3274e-14
3.54843e-13
1.13645e-12
3.38013e-12
8.62522e-12
1.89162e-11
3.63142e-11
5.96419e-11
1.07775e-10
1.41353e-10
1.23582e-10
8.90973e-11
8.45922e-11
1.32672e-10
2.40638e-10
3.66395e-10
4.31657e-10
4.10264e-10
1.79064e-10
1.35403e-10
1.27786e-10
4.67217e-11
1.49598e-13
5.16584e-15
9.81589e-17
1.8759e-20
5.01578e-21
7.4326e-24
0
0
0
0
0
0
0
0
0
0
0
0
0
0
0
0
0
0
0
0
0
0
0
0
0
0
0
0
0
0
0
0
0
0
0
0
0
0
0
0
0
0
0
0
0
0
0
0
0
0
0
0
0
0
0
0
0
0
0
0
0
0
0
0
0
1.52092e-12
1.44027e-12
6.76431e-14
1.34777e-16
5.4851e-16
2.7739e-15
1.16323e-14
5.07753e-14
2.14024e-13
7.54639e-13
2.23859e-12
6.10477e-12
1.34707e-11
2.7089e-11
7.43415e-11
1.48931e-10
1.88308e-10