/*--------------------------------*- C++ -*----------------------------------*\
  =========                 |
  \\      /  F ield         | OpenFOAM: The Open Source CFD Toolbox
   \\    /   O peration     | Website:  https://openfoam.org
    \\  /    A nd           | Version:  6
     \\/     M anipulation  |
\*---------------------------------------------------------------------------*/
FoamFile
{
    version     2.0;
    format      ascii;
    class       volScalarField;
    location    "0.005";
    object      CH3O;
}
// * * * * * * * * * * * * * * * * * * * * * * * * * * * * * * * * * * * * * //

dimensions      [0 0 0 0 0 0 0];

internalField   nonuniform List<scalar> 
8000
(
3.15886e-23
9.84037e-19
6.47401e-18
6.89744e-17
1.06623e-15
1.70852e-14
1.88354e-13
1.13821e-12
3.99152e-12
1.0027e-11
1.97591e-11
3.28733e-11
5.04354e-11
6.63463e-11
6.66232e-11
6.45789e-11
8.82532e-11
1.95909e-10
6.41743e-10
3.30569e-09
2.23853e-08
1.10313e-07
1.20604e-07
1.26184e-07
9.10562e-08
9.39943e-08
1.21172e-07
1.00607e-07
6.23401e-08
3.62685e-08
2.50336e-08
2.38213e-08
2.5992e-08
3.62836e-08
4.20827e-08
4.93248e-08
5.59581e-08
6.13036e-08
6.6998e-08
6.75426e-08
7.66374e-08
7.01232e-08
4.75932e-08
3.37325e-08
2.98121e-08
1.64162e-08
2.96371e-08
6.46446e-08
1.42367e-07
1.19711e-07
1.3544e-08
8.74167e-10
1.79021e-11
0
0
0
0
0
0
0
0
0
0
0
0
0
0
0
0
0
0
0
0
0
0
0
0
0
0
0
0
0
0
0
0
0
0
0
0
0
0
0
0
0
0
0
0
0
0
0
5.08635e-22
9.17058e-18
2.54781e-17
2.36902e-16
2.54452e-15
3.83559e-14
4.68165e-13
3.37036e-12
1.42862e-11
3.77014e-11
7.19917e-11
1.08281e-10
1.52316e-10
2.15616e-10
1.9774e-10
1.46064e-10
1.67595e-10
3.45829e-10
9.2331e-10
3.811e-09
2.50328e-08
1.34249e-07
5.42196e-11
8.61898e-08
9.20266e-08
1.18984e-07
1.58168e-07
1.12357e-07
6.6306e-08
3.53042e-08
2.37653e-08
2.29592e-08
2.58804e-08
3.71396e-08
4.38084e-08
5.32069e-08
5.69709e-08
6.5434e-08
6.72012e-08
8.2156e-08
8.39834e-08
6.99513e-08
4.76025e-08
3.3828e-08
3.03486e-08
1.78644e-08
3.54299e-08
7.72231e-08
2.17479e-07
1.82296e-07
3.08979e-08
1.3252e-09
6.04864e-12
0
0
0
0
0
0
0
0
0
0
0
0
0
0
0
0
0
0
0
0
0
0
0
0
0
0
0
0
0
0
0
0
0
0
0
0
0
0
0
0
0
0
0
0
0
0
0
3.68503e-18
2.31e-08
3.53449e-18
6.05324e-08
1.19041e-14
1.38971e-13
1.54684e-12
1.46355e-11
2.76857e-07
2.76677e-10
5.59794e-10
7.37674e-10
8.11226e-10
1.20409e-09
7.33617e-07
3.99511e-07
4.85975e-10
1.05808e-09
2.11984e-09
5.1708e-09
2.03091e-08
9.21791e-08
1.11395e-07
1.35244e-07
1.07903e-07
1.04945e-07
3.4206e-10
1.23518e-07
5.54479e-08
2.85079e-08
2.05294e-08
2.1599e-08
2.61792e-08
3.93576e-08
4.77135e-08
5.80373e-08
6.16677e-08
6.64222e-08
7.20756e-08
8.19328e-08
8.33372e-08
7.63765e-08
5.09299e-08
3.55854e-08
2.66952e-08
1.98771e-08
9.56779e-07
9.30501e-08
1.81478e-06
1.25402e-07
1.37756e-08
7.79433e-10
2.09317e-35
0
0
0
0
0
0
0
0
0
0
0
0
0
0
0
0
0
0
0
0
0
0
0
0
0
0
0
0
0
0
0
0
0
0
0
0
0
0
0
0
0
0
0
0
0
0
0
5.23665e-22
1.50073e-16
4.80754e-15
4.55071e-14
2.20121e-13
6.83148e-13
4.14047e-12
3.50314e-11
2.8967e-10
5.65739e-07
5.64966e-09
6.33474e-09
5.66456e-09
9.68146e-07
8.747e-10
6.7876e-10
1.18763e-09
4.84322e-09
9.91286e-07
1.05107e-08
2.44693e-08
1.58115e-06
1.45696e-07
1.53909e-07
1.24317e-07
7.41651e-08
6.89616e-08
5.47118e-08
3.41497e-08
2.65547e-08
1.87781e-08
2.17889e-08
2.79886e-08
4.32741e-08
5.35986e-08
6.3299e-08
6.73752e-08
7.19663e-08
7.17197e-08
8.90682e-08
8.22056e-08
7.54578e-08
5.06847e-08
3.57905e-08
2.74176e-08
1.90408e-08
4.09909e-08
8.70954e-08
1.25618e-07
5.44594e-08
4.40916e-09
3.51034e-10
1.22658e-39
0
0
0
0
0
0
0
0
0
0
0
0
0
0
0
0
0
0
0
0
0
0
0
0
0
0
0
0
0
0
0
0
0
0
0
0
0
0
0
0
0
0
0
0
0
0
0
7.42913e-20
1.76492e-16
1.07804e-07
5.02885e-13
1.9867e-07
3.67617e-12
9.2618e-12
1.76469e-07
4.88877e-10
9.85754e-07
2.42767e-06
2.30103e-06
1.77008e-06
3.99338e-09
1.41863e-09
7.86885e-07
3.59479e-09
1.15845e-06
2.02868e-08
2.55974e-08
1.34758e-06
1.56669e-06
1.31121e-07
1.82115e-06
1.47219e-06
7.77594e-08
5.02709e-08
1.08405e-07
5.47479e-08
2.73234e-08
2.06377e-08
2.47245e-08
3.18621e-08
4.27984e-08
6.22047e-08
1.54984e-12
7.86726e-08
7.71227e-08
9.47224e-08
8.73653e-08
8.04149e-08
7.40319e-08
6.19745e-08
3.78826e-08
2.82592e-08
1.87585e-08
3.99673e-08
7.85266e-08
7.44736e-08
1.90903e-08
1.88126e-09
6.24648e-11
0
0
0
0
0
0
0
0
0
0
0
0
0
0
0
0
0
0
0
0
0
0
0
0
0
0
0
0
0
0
0
0
0
0
0
0
0
0
0
0
0
0
0
0
0
0
0
0
2.70236e-18
3.04715e-17
1.71444e-13
1.05622e-07
1.92026e-11
1.40211e-07
1.75461e-11
4.60786e-11
2.20801e-10
1.41334e-09
6.03281e-09
6.32207e-09
3.39811e-09
1.57093e-09
1.43301e-09
3.16113e-09
1.14053e-08
1.41436e-06
6.63924e-08
1.54678e-06
7.43641e-08
1.65052e-06
1.32911e-07
1.79922e-06
1.14647e-06
8.01891e-08
5.39559e-08
8.29777e-08
1.06731e-07
2.39805e-08
2.10686e-08
2.96753e-08
6.57435e-10
4.83421e-08
6.58741e-08
7.4837e-08
7.85067e-08
9.19969e-08
9.20288e-08
8.47503e-08
7.78333e-08
7.19481e-08
1.4185e-13
3.79789e-08
2.9315e-08
2.00937e-08
4.3123e-08
8.35685e-08
5.40049e-08
1.20605e-08
2.24039e-09
4.13759e-10
0
0
0
0
0
0
0
0
0
0
0
0
0
0
0
0
0
0
0
0
0
0
0
0
0
0
0
0
0
0
0
0
0
0
0
0
0
0
0
0
0
0
0
0
0
0
0
0
1.88209e-18
4.52231e-16
4.00436e-14
4.68956e-13
2.4813e-12
6.67645e-12
2.04889e-07
7.95616e-11
2.17934e-10
4.6955e-10
4.29302e-07
4.8281e-07
4.39493e-07
1.43937e-09
2.80795e-09
8.2618e-09
2.19173e-08
6.34974e-08
1.57748e-06
1.13408e-07
1.65324e-06
1.19498e-07
1.76307e-06
1.41956e-07
1.49376e-08
6.87442e-08
6.31847e-08
4.43755e-08
3.04348e-08
2.33813e-08
2.56096e-08
3.66902e-08
4.6505e-08
5.50402e-08
6.864e-08
7.92208e-08
8.26507e-08
9.77855e-08
8.77317e-08
6.09484e-14
7.43434e-08
6.91906e-08
6.52423e-08
3.77089e-08
3.06544e-08
2.33386e-08
4.89017e-08
1.15406e-07
7.45201e-08
1.40425e-08
3.5238e-09
6.22301e-10
0
0
0
0
0
0
0
0
0
0
0
0
0
0
0
0
0
0
0
0
0
0
0
0
0
0
0
0
0
0
0
0
0
0
0
0
0
0
0
0
0
0
0
0
0
0
0
0
2.8129e-08
4.67456e-08
4.64952e-14
6.88694e-13
2.83773e-12
1.75033e-07
6.99288e-11
4.7846e-10
5.62823e-07
1.02266e-09
8.89722e-10
9.44301e-10
1.37506e-09
4.26112e-09
1.07307e-06
1.41709e-06
1.78612e-06
1.93471e-06
1.41115e-07
1.54298e-06
1.43055e-07
1.46617e-07
1.63471e-06
1.43365e-07
8.67439e-08
8.13443e-07
7.68201e-08
5.05717e-08
3.13975e-08
2.89173e-08
4.1766e-08
4.67894e-08
5.27434e-08
6.21991e-08
7.47269e-08
8.43719e-08
9.70433e-08
9.26313e-08
8.18766e-08
7.52064e-08
6.98042e-08
6.59518e-08
6.28215e-08
3.95566e-08
3.23614e-08
2.79289e-08
5.67073e-08
1.29625e-06
8.5384e-08
5.36316e-09
1.14324e-09
4.21529e-10
0
0
0
0
0
0
0
0
0
0
0
0
0
0
0
0
0
0
0
0
0
0
0
0
0
0
0
0
0
0
0
0
0
0
0
0
0
0
0
0
0
0
0
0
0
0
0
0
2.81301e-08
6.21842e-08
2.46798e-13
6.37975e-12
1.41362e-07
4.52294e-11
2.47671e-07
2.43358e-09
1.59599e-06
4.66131e-09
7.51178e-07
6.72521e-07
4.2294e-09
9.30361e-09
1.76743e-08
1.46444e-06
1.85943e-06
1.95844e-06
9.75145e-08
1.32343e-07
1.51656e-07
1.3754e-06
1.55569e-07
1.22976e-06
8.54102e-07
1.05002e-07
8.24279e-08
5.01491e-08
3.23365e-08
4.25583e-08
9.48927e-10
5.89321e-10
6.43649e-08
7.31499e-08
8.46742e-08
8.82624e-08
1.0134e-07
8.58567e-08
7.47261e-08
6.85167e-08
4.4837e-14
4.48002e-14
6.03897e-08
3.90431e-08
4.43329e-11
7.54632e-09
6.90267e-08
1.39285e-07
7.33903e-08
9.92028e-09
2.80464e-09
3.03404e-10
0
0
0
0
0
0
0
0
0
0
0
0
0
0
0
0
0
0
0
0
0
0
0
0
0
0
0
0
0
0
0
0
0
0
0
0
0
0
0
0
0
0
0
0
0
0
0
0
4.86394e-19
5.3711e-08
9.7104e-08
1.17887e-07
3.10378e-11
2.33555e-07
5.54481e-10
2.29347e-09
6.90322e-09
8.78748e-07
9.57404e-09
1.46833e-08
1.01648e-06
1.30194e-06
1.87982e-06
1.67637e-06
8.09127e-08
1.42034e-07
9.191e-08
1.22986e-07
1.3872e-07
1.33224e-07
1.35006e-07
1.22013e-07
1.12505e-07
9.95319e-08
7.22696e-08
4.56165e-08
3.44214e-08
3.61781e-08
5.87599e-08
6.62664e-08
1.19533e-10
7.63395e-08
8.95249e-08
2.9314e-13
9.44292e-08
7.76671e-08
6.66608e-08
6.10996e-08
5.90424e-14
5.76862e-08
5.77004e-08
3.84497e-08
3.12329e-08
2.80955e-08
1.59187e-06
1.32708e-07
6.1606e-08
7.62014e-09
3.04454e-09
2.9809e-10
0
0
0
0
0
0
0
0
0
0
0
0
0
0
0
0
0
0
0
0
0
0
0
0
0
0
0
0
0
0
0
0
0
0
0
0
0
0
0
0
0
0
0
0
0
0
0
0
3.14017e-08
5.23835e-13
7.77204e-12
4.74444e-11
2.24244e-10
4.56273e-07
6.41565e-07
8.51697e-07
2.55069e-08
3.48276e-08
4.76895e-08
1.10877e-06
7.28601e-08
1.38699e-06
8.55257e-08
9.06529e-08
1.10701e-07
1.77113e-06
2.7283e-07
9.59323e-08
1.13874e-07
6.04117e-07
1.02291e-07
4.25397e-07
6.51489e-07
7.93815e-08
5.90965e-08
4.43416e-08
4.49003e-08
6.09886e-08
6.80752e-08
7.29615e-08
8.18566e-08
8.4302e-08
9.0816e-08
2.71521e-13
8.57766e-08
1.9329e-13
5.81753e-08
5.32346e-08
5.1973e-08
5.28816e-08
5.50061e-08
3.57116e-08
3.08419e-08
2.86883e-08
7.4048e-08
1.23914e-07
4.92929e-08
1.84924e-09
2.11755e-09
2.96577e-10
0
0
0
0
0
0
0
0
0
0
0
0
0
0
0
0
0
0
0
0
0
0
0
0
0
0
0
0
0
0
0
0
0
0
0
0
0
0
0
0
0
0
0
0
0
0
0
0
2.93788e-14
4.12985e-11
4.65166e-10
6.30738e-07
6.3735e-09
8.45447e-07
9.65016e-07
5.96159e-08
1.18598e-07
1.23381e-07
1.29206e-07
1.34007e-07
1.43721e-07
1.40377e-06
1.41492e-07
1.42506e-07
1.4803e-07
1.57956e-06
3.39847e-07
3.55615e-07
9.62463e-08
8.8656e-08
7.87248e-08
7.7568e-08
7.19381e-08
6.32946e-08
5.42917e-08
2.08091e-07
6.50454e-08
4.98386e-09
7.69981e-08
8.46097e-08
8.77404e-08
1.92351e-12
8.29526e-08
9.04682e-08
2.04709e-13
5.89586e-08
4.95753e-08
4.54413e-08
4.5369e-08
4.86396e-08
1.60553e-13
3.5179e-08
3.05381e-08
4.59106e-08
1.95037e-06
6.64026e-07
3.66882e-08
7.83806e-09
6.92791e-10
3.37649e-10
8.99172e-12
0
0
0
0
0
0
0
0
0
0
0
0
0
0
0
0
0
0
0
0
0
0
0
0
0
0
0
0
0
0
0
0
0
0
0
0
0
0
0
0
0
0
0
0
0
0
0
5.23931e-12
6.65104e-09
3.21308e-08
1.07779e-06
1.18635e-06
1.24315e-06
1.23549e-07
1.51064e-06
8.13996e-08
9.26655e-07
1.10004e-06
1.08093e-06
1.29148e-07
1.18768e-06
1.48847e-07
1.54992e-07
1.44918e-06
1.34485e-07
1.09916e-07
3.17838e-07
7.75145e-08
7.17811e-08
7.12958e-08
9.18541e-08
6.54658e-08
5.93075e-08
5.66397e-08
9.24143e-08
6.90008e-08
8.1433e-08
8.76141e-08
9.20343e-08
9.54859e-08
8.45622e-08
7.26799e-08
7.68975e-08
2.92553e-13
2.94799e-13
4.13878e-08
3.81445e-08
3.93157e-08
9.83349e-14
2.07532e-13
3.46624e-08
3.016e-08
1.48236e-07
9.45951e-08
5.73388e-07
2.61537e-08
6.48293e-09
1.10577e-09
3.42285e-10
2.32352e-10
3.68753e-11
0
0
0
0
0
0
0
0
0
0
0
0
0
0
0
0
0
0
0
0
0
0
0
0
0
0
0
0
0
0
0
0
0
0
0
0
0
0
0
0
0
0
0
0
0
0
2.03374e-09
1.08264e-06
1.20101e-06
1.28471e-06
1.30353e-07
8.28263e-07
1.32058e-06
1.30626e-07
9.64536e-08
9.79362e-08
9.35323e-08
9.05754e-08
8.90902e-08
9.24607e-08
1.03389e-07
1.19339e-07
1.20944e-07
5.10429e-07
9.12963e-08
1.30367e-07
1.50337e-08
6.84803e-08
6.77401e-08
7.20373e-08
1.13588e-07
6.93684e-08
8.30017e-08
7.51475e-08
8.47295e-08
9.78125e-08
1.0263e-07
1.00411e-07
1.36566e-12
7.96739e-08
6.12668e-08
5.76705e-08
5.19912e-08
1.10061e-11
3.37162e-08
3.16094e-08
3.37789e-08
3.99524e-08
4.30133e-08
3.24266e-08
3.55953e-08
3.0136e-08
9.29765e-08
7.84103e-08
1.82287e-08
4.55378e-09
7.81267e-10
3.49774e-10
2.79867e-10
2.12523e-10
2.26483e-11
0
0
0
0
0
0
0
0
0
0
0
0
0
0
0
0
0
0
0
0
0
0
0
0
0
0
0
0
0
0
0
0
0
0
0
0
0
0
0
0
0
0
0
0
0
1.7515e-06
1.91176e-13
1.61801e-08
2.43124e-07
7.00159e-08
1.652e-07
8.64662e-08
4.2853e-07
1.38085e-07
1.06527e-07
1.66192e-07
1.11475e-07
3.20851e-07
7.54006e-08
2.51992e-07
7.65858e-08
8.86638e-08
9.15426e-08
7.67412e-08
3.62624e-08
1.14046e-08
3.50736e-08
6.43257e-08
7.20416e-08
8.02564e-08
3.43477e-08
8.25467e-08
7.91051e-08
8.86607e-08
2.62565e-11
4.36006e-12
2.36173e-12
1.2485e-12
1.51556e-11
4.49496e-11
6.44427e-11
2.96592e-08
2.28233e-08
6.07715e-12
2.39096e-08
4.376e-13
3.59862e-08
4.35786e-13
6.94091e-12
3.46269e-08
8.39291e-07
9.01517e-08
6.60037e-08
1.4995e-08
3.92364e-09
6.80551e-10
3.44903e-10
2.96001e-10
2.44015e-10
1.54738e-10
0
0
0
0
0
0
0
0
0
0
0
0
0
0
0
0
0
0
0
0
0
0
0
0
0
0
0
0
0
0
0
0
0
0
0
0
0
0
0
0
0
0
0
0
0
3.98137e-09
4.86466e-08
6.66378e-08
2.31734e-11
1.07416e-07
2.61074e-08
5.71813e-08
6.12151e-08
2.11066e-08
1.6191e-07
3.49732e-07
9.6529e-10
1.36223e-07
8.58983e-08
5.80021e-08
5.06555e-08
5.5875e-08
6.28471e-08
5.96227e-08
3.08381e-08
5.48596e-08
5.27794e-08
6.17138e-08
8.01865e-08
9.4536e-09
8.76897e-08
8.62046e-08
8.34576e-08
8.75262e-08
9.72967e-08
4.71194e-12
8.01112e-08
6.68915e-08
4.73172e-08
3.49882e-08
1.48786e-10
1.68443e-10
1.51929e-08
4.04973e-11
1.07295e-12
1.69169e-08
2.75323e-13
7.28297e-13
2.98205e-08
3.82208e-08
4.2179e-08
9.01831e-08
5.35795e-08
1.17775e-08
3.54961e-09
5.95636e-10
3.08657e-10
2.74448e-10
2.54197e-10
2.10702e-10
0
0
0
0
0
0
0
0
0
0
0
0
0
0
0
0
0
0
0
0
0
0
0
0
0
0
0
0
0
0
0
0
0
0
0
0
0
0
0
0
0
0
0
0
0
1.46214e-10
3.74986e-08
3.69237e-08
7.81424e-08
1.31176e-07
7.67998e-08
4.46186e-08
4.787e-08
9.30542e-08
9.97955e-12
3.08697e-07
3.18641e-13
1.05902e-11
1.00239e-07
5.69765e-08
3.94837e-08
3.74944e-08
4.24122e-08
4.91226e-08
4.7874e-08
4.27183e-08
4.39243e-08
5.48734e-08
1.57676e-09
3.64351e-10
8.03736e-08
1.21223e-10
4.63072e-11
2.70111e-11
1.45127e-11
6.14055e-08
5.51916e-08
4.15828e-08
3.10137e-08
3.14444e-10
4.09232e-10
4.00507e-10
8.60296e-09
8.29839e-09
7.29787e-12
1.0994e-12
1.95561e-08
1.90066e-12
2.87225e-08
1.87182e-08
1.58038e-06
9.1699e-07
4.29955e-08
1.0484e-08
3.01719e-09
4.14186e-10
9.7029e-11
4.0417e-44
3.3829e-11
8.05363e-47
0
0
0
0
0
0
0
0
0
0
0
0
0
0
0
0
0
0
0
0
0
0
0
0
0
0
0
0
0
0
0
0
0
0
0
0
0
0
0
0
0
0
0
0
0
8.92348e-10
1.18811e-08
1.19853e-08
2.18396e-08
5.65511e-08
6.19081e-11
2.65816e-08
2.68543e-08
5.70615e-08
8.45348e-08
1.46578e-07
1.10087e-12
1.66168e-12
4.27755e-11
3.72952e-08
2.8549e-08
1.42549e-08
3.13132e-08
1.95613e-08
3.68833e-08
3.32254e-08
9.11213e-09
4.11864e-08
4.79269e-08
5.91618e-08
5.78955e-08
5.32068e-08
4.61691e-08
4.25358e-08
4.20984e-08
4.21361e-08
1.84388e-10
3.08962e-10
1.89109e-08
8.09628e-10
8.58572e-09
6.17817e-09
4.69783e-09
4.85895e-09
6.70542e-09
2.19327e-12
1.32898e-12
2.16377e-08
2.612e-08
5.48938e-08
1.80915e-06
8.5015e-08
3.60481e-08
9.14443e-09
1.07641e-09
8.31619e-11
0
0
0
0
0
0
0
0
0
0
0
0
0
0
0
0
0
0
0
0
0
0
0
0
0
0
0
0
0
0
0
0
0
0
0
0
0
0
0
0
0
0
0
0
0
0
0
0
0
8.73123e-10
5.65988e-09
8.06841e-09
3.47621e-09
4.23151e-09
7.93631e-09
5.59881e-09
6.06863e-09
1.23938e-08
1.60353e-08
1.40539e-08
8.80548e-09
9.08169e-10
2.75806e-09
6.58011e-09
8.72114e-09
1.26977e-08
2.02415e-08
2.6095e-08
2.68669e-08
2.48013e-08
2.44295e-08
2.7391e-08
3.31921e-08
3.45086e-08
1.55635e-10
2.99105e-08
2.72789e-10
2.59821e-08
2.44161e-08
4.20767e-10
6.8886e-10
1.63126e-08
1.07414e-09
1.98878e-09
4.93504e-09
3.32698e-09
2.64928e-09
3.52235e-10
4.21244e-09
4.41576e-12
1.2073e-08
1.85882e-08
2.02371e-09
1.65244e-07
6.61193e-08
8.03195e-08
2.68164e-08
5.32261e-09
6.85429e-10
0
0
0
0
0
0
0
0
0
0
0
0
0
0
0
0
0
0
0
0
0
0
0
0
0
0
0
0
0
0
0
0
0
0
0
0
0
0
0
0
0
0
0
0
0
0
0
0
0
0
7.70778e-10
2.40389e-09
6.68042e-09
8.91934e-09
4.93515e-09
2.01949e-09
1.69369e-09
1.24656e-09
6.41729e-10
6.2097e-10
5.94295e-10
5.30988e-10
4.77689e-10
3.06833e-10
9.68962e-12
4.8447e-10
3.0585e-09
9.38562e-09
1.53652e-08
8.74743e-10
1.6123e-08
1.37595e-09
1.64353e-08
1.86545e-08
2.07628e-08
1.73519e-08
1.5456e-08
1.41289e-08
1.42171e-08
2.2387e-10
1.37187e-09
1.26845e-08
3.17772e-09
4.74151e-09
4.34591e-09
2.74745e-09
1.85038e-09
1.36691e-09
3.50873e-10
2.78029e-09
5.24467e-09
8.27755e-12
1.69823e-08
2.72579e-08
4.32887e-07
6.9003e-08
7.22327e-08
1.88702e-08
3.46946e-09
5.68537e-10
5.74372e-12
0
0
0
0
0
0
0
0
0
0
0
0
0
0
0
0
0
0
0
0
0
0
0
0
0
0
0
0
0
0
0
0
0
0
0
0
0
0
0
0
0
0
0
0
0
0
0
0
0
7.37239e-10
1.14334e-09
2.48439e-09
5.30317e-09
8.49004e-09
7.92794e-09
6.88218e-09
5.74624e-09
4.63736e-09
4.45813e-09
4.12504e-09
3.82272e-09
3.00164e-09
1.73439e-09
6.42524e-10
1.46535e-10
2.00193e-10
1.37183e-09
6.10845e-09
8.42028e-09
3.17877e-10
8.75154e-09
9.31674e-09
1.03314e-08
1.09166e-08
9.83049e-09
5.90083e-10
7.88148e-09
7.88345e-09
1.50677e-09
9.54416e-09
7.21944e-09
5.70511e-09
4.15424e-09
2.39533e-09
1.45488e-09
7.58187e-10
5.59986e-10
4.65189e-10
1.85499e-10
4.1549e-09
8.85716e-09
1.62399e-08
2.04589e-08
8.44532e-07
7.11914e-08
6.14382e-08
1.47636e-08
3.5625e-09
5.95724e-10
2.31922e-10
0
0
0
0
0
0
0
0
0
0
0
0
0
0
0
0
0
0
0
0
0
0
0
0
0
0
0
0
0
0
0
0
0
0
0
0
0
0
0
0
0
0
0
0
0
0
0
0
0
7.43584e-10
8.83242e-10
1.15571e-09
2.00009e-09
4.26003e-09
6.87031e-09
7.86253e-09
8.29496e-09
8.6086e-09
8.31111e-09
8.51794e-09
7.88021e-09
6.2603e-09
3.89625e-09
1.7455e-09
5.06334e-10
4.85447e-11
2.30868e-10
1.55468e-09
5.01427e-10
3.63611e-10
4.51562e-09
5.33774e-09
1.89833e-10
2.59847e-10
5.23144e-09
5.06577e-09
5.15679e-09
4.84142e-09
7.07428e-09
1.25079e-08
4.99949e-09
3.88544e-09
2.87033e-09
1.79259e-08
9.57494e-10
2.46641e-10
1.30718e-09
3.47232e-10
1.32894e-09
3.54376e-09
8.03494e-09
1.61147e-08
3.04712e-08
3.04863e-08
7.30479e-08
4.9204e-08
1.19838e-08
3.0782e-09
8.01115e-10
2.66242e-10
1.81464e-10
0
0
0
0
0
0
0
0
0
0
0
0
0
0
0
0
0
0
0
0
0
0
0
0
0
0
0
0
0
0
0
0
0
0
0
0
0
0
0
0
0
0
0
0
0
0
0
0
7.72823e-10
8.6931e-10
9.62627e-10
1.13093e-09
1.76815e-09
3.0433e-09
4.06748e-09
5.2451e-09
6.16144e-09
7.46603e-09
8.68055e-09
9.61982e-09
8.89543e-09
6.02402e-09
2.93271e-09
1.02943e-09
2.56227e-10
7.53194e-13
2.70799e-10
7.97761e-10
1.41826e-09
2.19963e-09
3.139e-09
3.74502e-09
3.67089e-09
2.95969e-09
1.5144e-09
3.13077e-09
3.54817e-09
3.92367e-09
4.06151e-09
3.52116e-08
4.6246e-08
1.64131e-09
9.20893e-10
4.5141e-10
2.00725e-10
4.5272e-11
2.15011e-10
9.80831e-10
2.91407e-09
7.52122e-09
1.90508e-08
2.81674e-08
3.63328e-08
7.10757e-08
3.85869e-08
1.0462e-08
2.51333e-09
4.9016e-10
2.58432e-10
1.82675e-10
0
0
0
0
0
0
0
0
0
0
0
0
0
0
0
0
0
0
0
0
0
0
0
0
0
0
0
0
0
0
0
0
0
0
0
0
0
0
0
0
0
0
0
0
0
0
0
0
8.21741e-10
9.33641e-10
9.883e-10
9.91849e-10
1.02858e-09
1.31325e-09
1.69196e-09
2.24175e-09
3.57149e-09
5.33538e-09
8.43707e-09
1.11695e-08
1.13705e-08
8.3504e-09
4.33088e-09
1.63527e-09
4.78853e-10
9.83751e-11
1.72016e-11
1.98657e-10
1.09942e-09
1.04237e-09
1.74929e-09
2.19177e-09
2.1613e-09
1.86551e-09
1.83066e-09
2.05144e-09
2.40378e-09
2.68893e-09
2.72265e-09
6.06099e-08
1.69339e-09
1.04763e-09
5.09274e-10
1.62902e-10
7.62226e-09
2.01065e-10
9.37313e-11
7.40294e-10
2.57994e-09
1.0934e-09
1.94007e-08
2.4335e-08
4.36482e-08
6.70729e-08
2.98656e-08
7.74539e-09
1.3674e-09
3.8075e-10
2.53223e-10
1.11574e-10
0
0
0
0
0
0
0
0
0
0
0
0
0
0
0
0
0
0
0
0
0
0
0
0
0
0
0
0
0
0
0
0
0
0
0
0
0
0
0
0
0
0
0
0
0
0
0
0
8.92631e-10
1.01526e-09
1.01017e-09
9.85561e-10
8.51073e-10
6.92501e-10
7.07743e-10
1.04781e-09
2.21236e-09
4.67993e-09
8.50586e-09
1.23545e-08
1.35212e-08
1.07043e-08
6.04304e-09
2.45681e-09
7.78077e-10
2.09371e-10
5.75924e-12
5.09555e-11
2.10747e-10
5.19084e-10
8.8738e-10
1.21465e-09
1.31353e-09
4.35282e-09
8.46321e-09
1.41407e-09
1.67106e-09
1.84901e-09
1.82986e-09
1.57496e-09
1.03276e-09
5.38976e-10
2.0259e-10
3.49391e-11
5.53458e-11
1.54296e-10
3.32903e-10
5.83174e-10
2.43088e-09
7.20783e-09
2.30342e-08
6.29244e-07
5.08442e-08
6.23289e-08
2.27464e-08
5.43606e-09
8.56338e-10
3.16828e-10
1.61579e-10
0
0
0
0
0
0
0
0
0
0
0
0
0
0
0
0
0
0
0
0
0
0
0
0
0
0
0
0
0
0
0
0
0
0
0
0
0
0
0
0
0
0
0
0
0
0
0
0
0
9.80881e-10
1.05229e-09
1.05859e-09
9.0478e-10
6.63507e-10
4.01631e-10
2.74201e-10
6.1923e-10
1.78217e-09
4.36509e-09
8.63641e-09
1.3191e-08
1.51828e-08
1.29346e-08
8.05112e-09
3.64429e-09
1.24401e-09
3.53498e-10
6.98455e-11
3.72721e-12
9.2901e-11
2.58447e-10
3.73619e-09
6.86937e-10
8.2805e-10
9.46106e-10
1.03173e-09
1.02039e-09
1.17093e-09
1.23194e-09
1.1619e-09
9.5533e-10
5.70194e-10
1.01037e-07
2.86009e-08
3.49086e-12
6.06646e-11
1.40127e-10
2.73796e-10
5.02885e-10
2.40491e-09
8.73189e-09
2.21579e-08
2.33757e-08
5.77905e-08
5.74233e-08
1.79565e-08
3.75585e-09
6.3945e-10
2.67992e-10
1.30796e-10
0
0
0
0
0
0
0
0
0
0
0
0
0
0
0
0
0
0
0
0
0
0
0
0
0
0
0
0
0
0
0
0
0
0
0
0
0
0
0
0
0
0
0
0
0
0
0
0
0
1.03469e-09
1.04548e-09
8.66301e-10
7.76425e-10
4.2391e-10
1.58288e-10
1.51995e-10
5.05862e-10
1.66142e-09
4.30556e-09
8.76845e-09
1.36752e-08
1.62559e-08
1.4824e-08
1.02177e-08
5.24434e-09
2.00133e-09
6.17006e-10
1.67159e-10
6.31813e-12
3.19082e-11
1.27251e-10
2.14754e-10
3.96949e-10
1.82954e-08
7.07244e-10
8.00021e-10
7.72602e-08
8.07213e-10
7.77109e-10
6.66535e-10
5.08675e-10
2.76133e-10
1.06588e-10
3.46335e-12
8.66761e-12
7.67672e-11
1.33784e-10
2.41717e-10
8.19328e-10
3.11808e-09
9.27606e-09
1.99424e-08
1.23708e-06
6.28434e-08
5.01641e-08
1.47406e-08
2.5528e-09
5.05266e-10
2.05714e-10
0
0
0
0
0
0
0
0
0
0
0
0
0
0
0
0
0
0
0
0
0
0
0
0
0
0
0
0
0
0
0
0
0
0
0
0
0
0
0
0
0
0
0
0
0
0
0
0
0
0
1.05723e-09
8.39675e-10
5.74134e-10
3.56887e-10
1.52163e-10
6.07408e-11
1.48549e-10
5.59686e-10
1.73767e-09
4.43782e-09
8.94984e-09
1.38826e-08
1.67761e-08
1.6137e-08
1.22702e-08
7.16145e-09
3.13547e-09
1.08723e-09
3.17176e-10
6.62391e-11
1.16647e-07
5.85352e-11
1.5736e-10
2.89012e-10
5.43528e-08
5.17375e-10
5.75189e-10
5.46424e-10
5.32313e-10
4.52956e-10
3.36226e-10
2.33411e-10
1.12322e-10
3.38598e-11
1.79353e-12
2.70586e-11
8.73587e-11
1.25162e-10
2.17366e-10
8.9524e-10
9.58264e-09
1.18826e-08
1.81068e-08
3.41453e-08
6.51504e-08
4.09659e-08
1.15173e-08
1.69558e-09
3.94915e-10
1.71466e-10
0
0
0
0
0
0
0
0
0
0
0
0
0
0
0
0
0
0
0
0
0
0
0
0
0
0
0
0
0
0
0
0
0
0
0
0
0
0
0
0
0
0
0
0
0
0
0
0
0
0
7.89282e-10
2.98362e-10
1.33223e-10
6.69915e-11
4.56451e-11
8.62104e-11
2.50443e-10
7.13143e-10
1.91593e-09
4.59664e-09
9.06013e-09
1.3838e-08
1.68305e-08
1.69368e-08
1.39764e-08
9.18315e-09
4.62928e-09
1.83795e-09
6.14135e-10
1.85841e-10
1.47116e-11
6.10953e-12
8.78602e-11
2.12142e-10
3.25523e-10
3.69701e-10
2.49463e-07
3.64839e-10
3.25834e-10
2.39712e-10
1.49796e-10
8.97091e-11
3.08254e-11
1.21427e-11
1.39398e-11
4.19131e-11
8.93275e-11
1.08682e-10
2.19674e-10
1.08193e-09
4.04982e-09
1.3274e-08
1.80948e-08
4.13888e-08
6.49439e-08
3.24353e-08
8.37103e-09
1.10241e-09
3.17311e-10
1.17132e-10
0
0
0
0
0
0
0
0
0
0
0
0
0
0
0
0
0
0
0
0
0
0
0
0
0
0
0
0
0
0
0
0
0
0
0
0
0
0
0
0
0
0
0
0
0
0
0
0
0
0
3.90987e-12
7.40322e-11
1.14525e-10
1.46518e-10
1.85823e-10
2.644e-10
4.46536e-10
9.07601e-10
2.12353e-09
4.84901e-09
9.02256e-09
1.3418e-08
1.64777e-08
1.72189e-08
1.52087e-08
1.10377e-08
6.33711e-09
2.88722e-09
1.1151e-09
3.90835e-10
1.23763e-10
4.33326e-12
2.56996e-11
1.34249e-10
2.30242e-10
3.44577e-07
2.68231e-07
2.23039e-10
1.75418e-10
1.15493e-10
2.60169e-07
2.5011e-11
2.38516e-12
7.54777e-12
2.0486e-11
4.41334e-11
8.42156e-11
8.63026e-11
2.7402e-10
1.53497e-09
5.74613e-09
1.37749e-08
2.07386e-08
1.41346e-06
6.24628e-08
2.43688e-08
6.23932e-09
8.24912e-10
2.37296e-10
2.48453e-11
7.02575e-50
0
0
0
0
0
0
0
0
0
0
0
0
0
0
0
0
0
0
0
0
0
0
0
0
0
0
0
0
0
0
0
0
0
0
0
0
0
0
0
0
0
0
0
0
0
0
0
0
0
1.74861e-09
1.82454e-09
1.5161e-09
1.1804e-09
8.89421e-10
7.24217e-10
7.70197e-10
1.20155e-09
2.43891e-09
4.92906e-09
8.38111e-09
1.22937e-08
1.54358e-08
1.69054e-08
1.61654e-08
1.31728e-08
9.02743e-09
5.13363e-09
2.51557e-09
1.13074e-09
4.81652e-10
1.66085e-10
1.65223e-11
1.96589e-11
9.45006e-11
1.13465e-10
1.02423e-10
7.72026e-11
5.09532e-11
2.91428e-11
9.87991e-12
9.2738e-14
1.71395e-12
6.73298e-12
1.91887e-11
4.25277e-11
7.84471e-11
5.53884e-11
4.40965e-10
2.30561e-09
7.6871e-09
1.30184e-08
1.57803e-06
6.46844e-08
4.9703e-08
1.30892e-08
2.27274e-09
4.50455e-10
5.38753e-50
0
0
0
0
0
0
0
0
0
0
0
0
0
0
0
0
0
0
0
0
0
0
0
0
0
0
0
0
0
0
0
0
0
0
0
0
0
0
0
0
0
0
0
0
0
0
0
0
0
0
0
2.9522e-10
6.41725e-10
8.78987e-10
9.12035e-10
8.12187e-10
7.39171e-10
8.39812e-10
1.3194e-09
2.51299e-09
4.64768e-09
7.37206e-09
1.01294e-08
1.31878e-08
1.5379e-08
1.57871e-08
1.4242e-08
1.11939e-08
7.65335e-09
4.58766e-09
2.49588e-09
1.27453e-09
6.0158e-10
2.23325e-10
6.19261e-11
2.46028e-11
1.52955e-11
1.27141e-11
4.68665e-12
2.97983e-12
3.30639e-12
4.50293e-12
1.46776e-12
6.14097e-14
2.20059e-12
1.21747e-11
3.48383e-11
5.38521e-11
8.01934e-11
9.3097e-10
3.80321e-09
8.3877e-09
1.18148e-06
1.45106e-06
6.42513e-08
2.81934e-08
6.11838e-09
9.73747e-10
1.41881e-10
0
0
0
0
0
0
0
0
0
0
0
0
0
0
0
0
0
0
0
0
0
0
0
0
0
0
0
0
0
0
0
0
0
0
0
0
0
0
0
0
0
0
0
0
0
0
0
0
0
0
0
0
5.00203e-11
1.7636e-10
3.09628e-10
4.07166e-10
4.67916e-10
5.48139e-10
7.59905e-10
1.2908e-09
2.38605e-09
4.14067e-09
6.32071e-09
8.57104e-09
1.07895e-08
1.33326e-08
1.46284e-08
1.41583e-08
1.21596e-08
9.31187e-09
6.4302e-09
4.05352e-09
2.38294e-09
1.3149e-09
6.66224e-10
3.04213e-10
1.21388e-10
3.59242e-11
7.09041e-12
6.61835e-12
5.755e-12
1.31311e-12
6.14656e-13
1.8132e-12
4.79072e-13
1.13431e-12
9.27493e-12
2.89951e-11
1.29929e-11
2.46653e-10
1.6693e-09
4.92011e-09
9.43403e-09
2.83062e-08
5.46497e-08
4.80068e-08
1.36391e-08
2.66067e-09
5.37073e-10
0
0
0
0
0
0
0
0
0
0
0
0
0
0
0
0
0
0
0
0
0
0
0
0
0
0
0
0
0
0
0
0
0
0
0
0
0
0
0
0
0
0
0
0
0
0
0
0
0
0
0
0
0
1.04626e-11
4.83485e-11
1.06563e-10
1.737e-10
2.69862e-10
4.24765e-10
7.09892e-10
1.27238e-09
2.25009e-09
3.67934e-09
5.42412e-09
7.33626e-09
9.30458e-09
1.13801e-08
1.33646e-08
1.37349e-08
1.25803e-08
1.04011e-08
7.88865e-09
5.51813e-09
3.5985e-09
2.23201e-09
1.30925e-09
6.99839e-10
3.28324e-10
1.29131e-10
5.58377e-11
3.75862e-11
1.79646e-11
6.74756e-12
2.57656e-12
8.53276e-13
6.72921e-13
9.58797e-13
8.78619e-12
2.10459e-11
2.18267e-11
5.69449e-10
2.52244e-09
6.42421e-09
1.6871e-08
4.34004e-08
5.52813e-08
2.7875e-08
6.81016e-09
1.21226e-09
3.01885e-10
0
0
0
0
0
0
0
0
0
0
0
0
0
0
0
0
0
0
0
0
0
0
0
0
0
0
0
0
0
0
0
0
0
0
0
0
0
0
0
0
0
0
0
0
0
0
0
0
0
0
0
0
0
0
1.62409e-11
3.76416e-11
9.28273e-11
2.04478e-10
3.92854e-10
7.33297e-10
1.2978e-09
2.17762e-09
3.33295e-09
4.7603e-09
6.39336e-09
8.16975e-09
1.02576e-08
1.22831e-08
1.334e-08
1.29213e-08
1.13398e-08
9.20343e-09
7.01744e-09
4.99522e-09
3.30938e-09
2.0271e-09
1.11326e-09
5.29241e-10
2.20069e-10
1.03447e-10
4.50846e-11
1.93188e-11
6.93841e-12
2.02874e-12
8.40041e-13
4.98724e-13
1.14857e-12
8.70692e-12
4.05972e-13
1.71664e-10
1.17099e-09
4.07397e-09
1.29253e-08
3.66303e-08
5.83323e-08
4.39872e-08
1.24843e-08
2.45477e-09
5.85414e-10
1.29474e-49
0
0
0
0
0
0
0
0
0
0
0
0
0
0
0
0
0
0
0
0
0
0
0
0
0
0
0
0
0
0
0
0
0
0
0
0
0
0
0
0
0
0
0
0
0
0
0
0
0
0
0
0
0
0
8.78199e-16
2.5187e-11
6.87604e-11
1.75557e-10
3.8961e-10
7.27751e-10
1.26003e-09
2.02295e-09
3.00535e-09
4.21811e-09
6.38657e-09
9.23496e-09
1.27566e-08
1.55943e-08
1.71304e-08
1.6742e-08
1.48593e-08
1.21963e-08
9.35323e-09
6.68605e-09
4.4075e-09
2.64597e-09
1.39973e-09
6.28768e-10
2.50721e-10
1.13877e-10
4.34595e-11
1.75878e-11
5.82461e-12
1.30652e-12
1.90629e-12
6.64243e-15
1.82631e-12
4.64795e-12
5.12041e-11
5.47425e-10
2.44065e-09
8.64457e-09
2.87602e-08
6.03538e-08
5.17552e-08
2.16243e-08
5.25226e-09
9.63401e-10
1.53572e-10
0
0
0
0
0
0
0
0
0
0
0
0
0
0
0
0
0
0
0
0
0
0
0
0
0
0
0
0
0
0
0
0
0
0
0
0
0
0
0
0
0
0
0
0
0
0
0
0
0
0
0
0
0
0
0
6.3473e-14
1.04014e-11
4.38515e-11
1.1867e-10
2.47375e-10
4.74971e-10
8.46519e-10
1.47504e-09
2.487e-09
5.01305e-09
8.54438e-09
1.27914e-08
1.80037e-08
2.21633e-08
2.38552e-08
2.29401e-08
2.01054e-08
1.62035e-08
1.21643e-08
8.41934e-09
5.3463e-09
3.0537e-09
1.50672e-09
6.14142e-10
2.22326e-10
9.70061e-11
3.6143e-11
1.45763e-11
4.24805e-12
5.82609e-13
2.62063e-12
2.93525e-12
1.62386e-11
5.45284e-11
2.90956e-10
1.5637e-09
5.77481e-09
1.83223e-08
4.35119e-08
5.3656e-08
3.07652e-08
8.55123e-09
1.68078e-09
4.81501e-10
0
0
0
0
0
0
0
0
0
0
0
0
0
0
0
0
0
0
0
0
0
0
0
0
0
0
0
0
0
0
0
0
0
0
0
0
0
0
0
0
0
0
0
0
0
0
0
0
0
0
0
0
0
0
0
0
0
3.32094e-12
2.22725e-12
4.78374e-12
1.05117e-11
3.11085e-11
1.20111e-10
4.97816e-10
2.14965e-09
6.15003e-09
1.16836e-08
1.81004e-08
2.54637e-08
3.19156e-08
3.33286e-08
3.11842e-08
2.64873e-08
2.06989e-08
1.4934e-08
9.96284e-09
6.0246e-09
3.24152e-09
1.47742e-09
5.34408e-10
1.65636e-10
7.01677e-11
2.82023e-11
1.10132e-11
2.45487e-13
9.76269e-12
3.10063e-11
9.93466e-11
2.07793e-10
3.40763e-10
9.88898e-10
4.41057e-09
1.34694e-08
3.27396e-08
4.2399e-08
3.18893e-08
1.12816e-08
2.90041e-09
7.5773e-10
2.7229e-10
0
0
0
0
0
0
0
0
0
0
0
0
0
0
0
0
0
0
0
0
0
0
0
0
0
0
0
0
0
0
0
0
0
0
0
0
0
0
0
0
0
0
0
0
0
0
0
0
0
0
0
0
0
0
0
0
0
0
1.84186e-15
4.57915e-14
6.72166e-14
2.45802e-13
3.40222e-13
5.24195e-11
1.31777e-09
6.24337e-09
1.41548e-08
2.34472e-08
3.34358e-08
4.23903e-08
4.40019e-08
4.03115e-08
3.33457e-08
2.53208e-08
1.75826e-08
1.12575e-08
6.53289e-09
3.33957e-09
1.42187e-09
4.56835e-10
1.09967e-10
3.49484e-11
1.22332e-11
1.62762e-13
1.31921e-11
7.46025e-11
2.58867e-10
6.81314e-10
1.12949e-09
1.33908e-09
2.94995e-09
1.01598e-08
2.36035e-08
3.8706e-08
2.81094e-08
1.15309e-08
3.82524e-09
9.39427e-10
3.76673e-10
0
0
0
0
0
0
0
0
0
0
0
0
0
0
0
0
0
0
0
0
0
0
0
0
0
0
0
0
0
0
0
0
0
0
0
0
0
0
0
0
0
0
0
0
0
0
0
0
0
0
0
0
0
0
0
0
0
0
0
9.92969e-14
1.64624e-14
1.85668e-14
6.40371e-13
7.8552e-12
6.75868e-11
6.59383e-10
4.74459e-09
1.3813e-08
2.56889e-08
3.94812e-08
5.1393e-08
5.40626e-08
4.91945e-08
4.01301e-08
2.97408e-08
2.01422e-08
1.25119e-08
7.07627e-09
3.52261e-09
1.46019e-09
4.46747e-10
8.31442e-11
8.61795e-12
3.87653e-16
2.01782e-11
1.41014e-10
5.03526e-10
1.46385e-09
3.18668e-09
4.71442e-09
4.34947e-09
8.14068e-09
1.92524e-08
2.89291e-08
2.97604e-08
1.24936e-08
4.11901e-09
1.11332e-09
4.2329e-10
5.02075e-50
0
0
0
0
0
0
0
0
0
0
0
0
0
0
0
0
0
0
0
0
0
0
0
0
0
0
0
0
0
0
0
0
0
0
0
0
0
0
0
0
0
0
0
0
0
0
0
0
0
0
0
0
0
0
0
0
0
0
0
0
1.48468e-13
9.47115e-14
3.01423e-13
7.93193e-12
7.04851e-11
3.78482e-10
2.6327e-09
1.04588e-08
2.29864e-08
4.06979e-08
5.64005e-08
6.13276e-08
5.66132e-08
4.63318e-08
3.40321e-08
2.28672e-08
1.40404e-08
7.92324e-09
4.01688e-09
1.7396e-09
5.96849e-10
1.5131e-10
4.20473e-11
7.28933e-11
2.72153e-10
8.66876e-10
2.42462e-09
5.98045e-09
1.05177e-08
1.58297e-08
1.15191e-08
1.73074e-08
2.6799e-08
2.45091e-08
1.47049e-08
4.98945e-09
1.23392e-09
4.94664e-10
2.00433e-49
0
0
0
0
0
0
0
0
0
0
0
0
0
0
0
0
0
0
0
0
0
0
0
0
0
0
0
0
0
0
0
0
0
0
0
0
0
0
0
0
0
0
0
0
0
0
0
0
0
0
0
0
0
0
0
0
0
0
0
0
0
0
6.08571e-13
5.75177e-13
2.86015e-12
4.68185e-11
2.90761e-10
1.13882e-09
6.26286e-09
1.80177e-08
3.62843e-08
5.57987e-08
6.45103e-08
6.1856e-08
5.14788e-08
3.84074e-08
2.59622e-08
1.62479e-08
9.46313e-09
5.09384e-09
2.49306e-09
1.09152e-09
4.96255e-10
3.72576e-10
5.82984e-10
1.37158e-09
3.45751e-09
8.03921e-09
1.80036e-08
2.33011e-08
2.66405e-08
2.18701e-08
2.37821e-08
2.39114e-08
1.28211e-08
5.53837e-09
1.51798e-09
6.20406e-10
1.45277e-10
0
0
0
0
0
0
0
0
0
0
0
0
0
0
0
0
0
0
0
0
0
0
0
0
0
0
0
0
0
0
0
0
0
0
0
0
0
0
0
0
0
0
0
0
0
0
0
0
0
0
0
0
0
0
0
0
0
0
0
0
0
0
0
0
0
2.02701e-12
1.85394e-11
1.62003e-10
6.28051e-10
2.85919e-09
1.15876e-08
2.73771e-08
4.90863e-08
6.31057e-08
6.37845e-08
5.55339e-08
4.2738e-08
2.99059e-08
1.94778e-08
1.20819e-08
7.23625e-09