/*--------------------------------*- C++ -*----------------------------------*\
  =========                 |
  \\      /  F ield         | OpenFOAM: The Open Source CFD Toolbox
   \\    /   O peration     | Website:  https://openfoam.org
    \\  /    A nd           | Version:  6
     \\/     M anipulation  |
\*---------------------------------------------------------------------------*/
FoamFile
{
    version     2.0;
    format      ascii;
    class       volScalarField;
    location    "0.005";
    object      CH4;
}
// * * * * * * * * * * * * * * * * * * * * * * * * * * * * * * * * * * * * * //

dimensions      [0 0 0 0 0 0 0];

internalField   nonuniform List<scalar> 
8000
(
1.57002e-17
4.89891e-13
3.22422e-12
3.4381e-11
5.29448e-10
8.13578e-09
7.33388e-08
2.64265e-07
4.72454e-07
6.59071e-07
8.37525e-07
1.00587e-06
1.17104e-06
1.28945e-06
1.29948e-06
1.28904e-06
1.41398e-06
1.75725e-06
2.35603e-06
3.92231e-06
9.06235e-06
2.2838e-05
3.80001e-05
4.42931e-05
6.65755e-05
0.000136535
0.00019339
0.000184422
0.00014233
0.000105933
9.45738e-05
0.000111637
0.000149422
0.000207125
0.000252136
0.000292487
0.000319911
0.000361775
0.000376389
0.000395562
0.000401164
0.000397317
0.000369697
0.000312244
0.00021067
3.93172e-05
1.89703e-05
2.51964e-05
2.90236e-05
1.08189e-05
1.59387e-06
1.64729e-07
2.20439e-09
0
0
0
0
0
0
0
0
0
0
0
0
0
0
0
0
0
0
0
0
0
0
0
0
0
0
0
0
0
0
0
0
0
0
0
0
0
0
0
0
0
0
0
0
0
0
0
2.53134e-16
4.57994e-12
1.27095e-11
1.18076e-10
1.25608e-09
1.75785e-08
1.49173e-07
4.42772e-07
7.48404e-07
1.04802e-06
1.29983e-06
1.48256e-06
1.64961e-06
1.83743e-06
1.82016e-06
1.68262e-06
1.73574e-06
2.07524e-06
2.64106e-06
4.19457e-06
9.62769e-06
2.83699e-05
0.000382398
5.42871e-05
7.95446e-05
0.000180364
0.000250374
0.000213113
0.0001521
0.000104417
9.09393e-05
0.000108898
0.000149014
0.000209596
0.00025687
0.000306849
0.000322679
0.00037604
0.000377607
0.000400031
0.000406535
0.000398319
0.000370578
0.00031348
0.0002147
4.64756e-05
2.19576e-05
2.56045e-05
4.27837e-05
1.81509e-05
3.4009e-06
2.65967e-07
8.95383e-10
0
0
0
0
0
0
0
0
0
0
0
0
0
0
0
0
0
0
0
0
0
0
0
0
0
0
0
0
0
0
0
0
0
0
0
0
0
0
0
0
0
0
0
0
0
0
0
1.82033e-12
2.68719e-07
1.74928e-12
6.6685e-07
5.72549e-09
5.64488e-08
3.10142e-07
7.54134e-07
3.52128e-06
1.92438e-06
2.29893e-06
2.50623e-06
2.63467e-06
3.0312e-06
8.88723e-06
6.88051e-06
2.3706e-06
2.84844e-06
3.48237e-06
4.83037e-06
8.83657e-06
2.01728e-05
4.01086e-05
4.26861e-05
5.77408e-05
0.000149817
0.000756375
0.000233967
0.000134916
8.83414e-05
8.09049e-05
0.000104343
0.000149942
0.000215818
0.000267476
0.000305541
0.000339694
0.000380233
0.000392129
0.000402416
0.000408812
0.000404884
0.00038431
0.000326699
0.000213024
5.66535e-05
0.000135497
2.3405e-05
3.07837e-05
1.08397e-05
1.77781e-06
1.51994e-07
4.03881e-13
0
0
0
0
0
0
0
0
0
0
0
0
0
0
0
0
0
0
0
0
0
0
0
0
0
0
0
0
0
0
0
0
0
0
0
0
0
0
0
0
0
0
0
0
0
0
0
2.60427e-16
7.47031e-11
2.35904e-09
2.07768e-08
8.4094e-08
1.94525e-07
4.77463e-07
1.01485e-06
1.92335e-06
8.69411e-06
5.13538e-06
5.46544e-06
5.36951e-06
1.0753e-05
2.82189e-06
2.6307e-06
3.03097e-06
4.92465e-06
1.46628e-05
6.68029e-06
9.84607e-06
3.07867e-05
3.17727e-05
3.72404e-05
4.51381e-05
6.90953e-05
0.000111141
0.0001176
9.42765e-05
0.000313515
7.63832e-05
0.000105498
0.000155864
0.000225986
0.000283549
0.000319554
0.000359528
0.000374615
0.000395535
0.000410183
0.00041161
0.000407858
0.000387351
0.000330195
0.0002202
5.31693e-05
1.98593e-05
1.53677e-05
1.29963e-05
4.76166e-06
6.85613e-07
5.77319e-08
3.04283e-22
0
0
0
0
0
0
0
0
0
0
0
0
0
0
0
0
0
0
0
0
0
0
0
0
0
0
0
0
0
0
0
0
0
0
0
0
0
0
0
0
0
0
0
0
0
0
0
3.69794e-14
8.79454e-11
1.17049e-06
1.60142e-07
2.13791e-06
4.67216e-07
6.48733e-07
2.20408e-06
2.19973e-06
1.13165e-05
5.07371e-05
4.301e-05
2.66328e-05
4.65932e-06
3.23832e-06
9.19228e-06
4.42503e-06
1.79033e-05
9.27202e-06
1.02715e-05
2.4936e-05
3.20717e-05
2.77998e-05
7.72409e-05
9.70821e-05
5.05105e-05
7.27211e-05
0.000235862
0.000146577
8.47754e-05
7.89204e-05
0.000114044
0.00016729
0.000229263
0.000310119
0.000805383
0.000370773
0.000391075
0.000407377
0.000413789
0.000414578
0.000410916
0.000393849
0.000345829
0.00022809
5.32164e-05
1.71823e-05
1.11912e-05
6.65014e-06
2.09845e-06
3.29131e-07
8.97659e-09
0
0
0
0
0
0
0
0
0
0
0
0
0
0
0
0
0
0
0
0
0
0
0
0
0
0
0
0
0
0
0
0
0
0
0
0
0
0
0
0
0
0
0
0
0
0
0
0
1.34355e-12
1.5119e-11
6.70083e-08
1.33494e-06
8.58738e-07
1.79104e-06
8.10967e-07
1.12645e-06
1.78078e-06
2.99417e-06
5.28536e-06
5.44637e-06
4.26463e-06
3.27022e-06
3.19809e-06
4.20288e-06
7.22615e-06
2.57453e-05
1.79011e-05
3.65835e-05
1.88109e-05
3.92155e-05
2.90641e-05
8.24807e-05
0.000108879
5.14827e-05
5.63188e-05
0.00033524
0.000233927
5.95837e-05
7.21769e-05
0.000128203
0.000529168
0.000241955
0.000304079
0.000358769
0.000374885
0.000399026
0.00041035
0.000417361
0.000417331
0.000413595
0.000827031
0.000350107
0.000237249
6.12813e-05
1.88055e-05
1.0931e-05
4.79652e-06
1.52471e-06
4.24751e-07
9.82426e-08
0
0
0
0
0
0
0
0
0
0
0
0
0
0
0
0
0
0
0
0
0
0
0
0
0
0
0
0
0
0
0
0
0
0
0
0
0
0
0
0
0
0
0
0
0
0
0
0
9.37442e-13
2.24868e-10
1.83065e-08
1.50056e-07
3.90406e-07
5.74383e-07
2.19346e-06
1.35267e-06
1.80864e-06
2.24557e-06
6.6498e-06
7.95648e-06
7.40961e-06
3.17745e-06
3.98744e-06
6.23272e-06
9.8673e-06
1.78808e-05
6.62599e-05
2.76823e-05
5.33004e-05
2.6916e-05
6.11978e-05
4.52364e-05
0.000157061
6.32187e-05
5.2853e-05
4.93274e-05
4.31952e-05
5.07035e-05
8.22575e-05
0.000138569
0.000200278
0.000256546
0.000310486
0.000374667
0.000390456
0.000406478
0.000411854
0.000822961
0.000419439
0.00041574
0.000402491
0.000352434
0.000248092
7.7438e-05
2.30098e-05
1.49092e-05
6.28786e-06
1.90568e-06
7.52472e-07
1.82673e-07
0
0
0
0
0
0
0
0
0
0
0
0
0
0
0
0
0
0
0
0
0
0
0
0
0
0
0
0
0
0
0
0
0
0
0
0
0
0
0
0
0
0
0
0
0
0
0
0
3.24516e-07
5.19272e-07
2.08865e-08
1.92753e-07
4.0988e-07
1.87546e-06
1.31227e-06
2.2743e-06
8.54145e-06
2.84934e-06
2.74946e-06
2.77576e-06
3.0891e-06
4.64021e-06
1.46656e-05
2.06034e-05
3.4525e-05
5.77192e-05
5.1821e-05
8.78296e-05
3.66975e-05
3.63581e-05
7.35396e-05
4.82766e-05
5.76717e-05
0.00011765
4.74919e-05
4.08639e-05
4.14919e-05
6.88126e-05
0.000124303
0.000172601
0.000221439
0.000274555
0.000331494
0.000371439
0.000398972
0.000408084
0.000411698
0.000418986
0.000420509
0.000417795
0.000402645
0.000366048
0.000260871
9.83907e-05
2.84817e-05
1.9153e-05
7.62845e-06
7.5083e-08
6.09959e-08
1.1042e-07
0
0
0
0
0
0
0
0
0
0
0
0
0
0
0
0
0
0
0
0
0
0
0
0
0
0
0
0
0
0
0
0
0
0
0
0
0
0
0
0
0
0
0
0
0
0
0
0
3.26179e-07
7.33701e-07
9.0867e-08
5.53882e-07
1.52232e-06
1.14534e-06
3.2118e-06
3.73625e-06
2.07055e-05
4.83114e-06
1.0552e-05
9.692e-06
4.50434e-06
6.35698e-06
8.66592e-06
2.48351e-05
3.97496e-05
7.47936e-05
9.19035e-05
5.81606e-05
4.79959e-05
8.13059e-05
4.68537e-05
9.70241e-05
0.000105114
5.41594e-05
4.69423e-05
4.15819e-05
5.50275e-05
0.000113589
0.000433059
0.000479245
0.000253193
0.00029624
0.000366468
0.000389429
0.000407177
0.000408295
0.00040994
0.000416622
0.000821869
0.00082294
0.000402991
0.000366269
0.000711328
0.000268196
3.40463e-05
1.72898e-05
6.46978e-06
1.77622e-06
6.43467e-07
6.83546e-08
0
0
0
0
0
0
0
0
0
0
0
0
0
0
0
0
0
0
0
0
0
0
0
0
0
0
0
0
0
0
0
0
0
0
0
0
0
0
0
0
0
0
0
0
0
0
0
0
2.39934e-13
6.3052e-07
1.0353e-06
1.48793e-06
1.02142e-06
2.9749e-06
2.33807e-06
3.53021e-06
5.47975e-06
1.33808e-05
6.23203e-06
7.58441e-06
1.68318e-05
2.30483e-05
4.12443e-05
3.31825e-05
2.05856e-05
4.25525e-05
8.13668e-05
6.90972e-05
6.11662e-05
6.79139e-05
6.07003e-05
6.27396e-05
6.08129e-05
5.45374e-05
4.92928e-05
4.73476e-05
6.47896e-05
0.000380046
0.000185613
0.000236516
0.000662221
0.000311737
0.000367351
0.000820775
0.000409288
0.000407206
0.00040671
0.000412333
0.000821891
0.000417021
0.000402257
0.000364962
0.000246151
8.88631e-05
0.0001137
1.5098e-05
5.68173e-06
1.61956e-06
7.64328e-07
6.96476e-08
0
0
0
0
0
0
0
0
0
0
0
0
0
0
0
0
0
0
0
0
0
0
0
0
0
0
0
0
0
0
0
0
0
0
0
0
0
0
0
0
0
0
0
0
0
0
0
0
3.81494e-07
1.78585e-07
6.37586e-07
1.17875e-06
1.84111e-06
5.92947e-06
9.10249e-06
1.30681e-05
9.36822e-06
1.08002e-05
1.27675e-05
2.38471e-05
1.68064e-05
3.11285e-05
1.9663e-05
2.0659e-05
2.51986e-05
0.000100428
9.92469e-05
8.94632e-05
7.25237e-05
0.000102787
7.4127e-05
0.000112384
0.000104969
6.10287e-05
6.00544e-05
6.42802e-05
9.57239e-05
0.000152563
0.000205294
0.000253911
0.000298176
0.000347543
0.000382525
0.000820073
0.000409176
0.000820245
0.000402185
0.000406574
0.00041196
0.000414618
0.000401379
0.000350382
0.000236304
8.13407e-05
2.77637e-05
1.30651e-05
4.66756e-06
6.75595e-08
5.16606e-07
7.10924e-08
0
0
0
0
0
0
0
0
0
0
0
0
0
0
0
0
0
0
0
0
0
0
0
0
0
0
0
0
0
0
0
0
0
0
0
0
0
0
0
0
0
0
0
0
0
0
0
0
1.66731e-08
1.10557e-06
2.04713e-06
7.36605e-06
5.04742e-06
1.27775e-05
1.6263e-05
1.44124e-05
2.43089e-05
2.47435e-05
2.55633e-05
2.66368e-05
3.0721e-05
5.41404e-05
2.91728e-05
2.98196e-05
3.40109e-05
0.000103114
0.000103023
9.9058e-05
7.77059e-05
7.94508e-05
8.96939e-05
0.000108838
8.19476e-05
7.09352e-05
8.03398e-05
0.000191836
0.000144663
0.000452596
0.000237676
0.000289199
0.000326146
0.000806703
0.000381618
0.000397962
0.000818837
0.000399924
0.000396329
0.000400051
0.000405781
0.000412867
0.000825913
0.000346703
0.000224185
0.00015254
8.17329e-05
1.24026e-05
3.638e-06
1.4612e-06
4.17834e-08
9.27246e-08
1.53758e-09
0
0
0
0
0
0
0
0
0
0
0
0
0
0
0
0
0
0
0
0
0
0
0
0
0
0
0
0
0
0
0
0
0
0
0
0
0
0
0
0
0
0
0
0
0
0
0
7.77213e-07
4.59713e-06
9.53043e-06
1.96488e-05
2.814e-05
3.59786e-05
2.44632e-05
6.09268e-05
7.62369e-05
9.1911e-05
6.94253e-05
6.46699e-05
4.20805e-05
6.42867e-05
3.89857e-05
4.05115e-05
9.48862e-05
5.70422e-05
7.45812e-05
0.000100527
9.79753e-05
9.2401e-05
0.000109634
0.00021071
9.66847e-05
9.01659e-05
0.000102242
0.00030028
0.00017206
0.000229748
0.000270357
0.00030755
0.000363829
0.000363078
0.000376699
0.000389311
0.000817423
0.00081782
0.000389444
0.000393191
0.000399712
0.000822921
0.000825368
0.000341365
0.000208963
0.0001248
2.36262e-05
1.08929e-05
2.77269e-06
1.1176e-06
2.64635e-07
9.61577e-08
5.47881e-08
4.99097e-09
0
0
0
0
0
0
0
0
0
0
0
0
0
0
0
0
0
0
0
0
0
0
0
0
0
0
0
0
0
0
0
0
0
0
0
0
0
0
0
0
0
0
0
0
0
0
4.01063e-06
4.57862e-05
5.19113e-05
5.78551e-05
3.74398e-05
9.8782e-05
8.74693e-05
4.79032e-05
6.85867e-05
7.29174e-05
7.3218e-05
6.58013e-05
6.03358e-05
5.48918e-05
5.05218e-05
4.97537e-05
5.69927e-05
0.000105715
8.37763e-05
0.000119888
0.000351543
0.000119982
0.000121657
0.000130104
0.000239513
0.000128665
0.000321729
0.000164912
0.000215357
0.000275664
0.000308021
0.000348953
0.000808337
0.000372298
0.000368699
0.000371956
0.000380959
0.000814048
0.000381342
0.000386219
0.000393352
0.000404933
0.000387424
0.000322404
0.000198216
4.09592e-05
1.97793e-05
7.03385e-06
2.09351e-06
8.08084e-07
1.89335e-07
9.85968e-08
8.57996e-08
6.53082e-08
2.9939e-09
0
0
0
0
0
0
0
0
0
0
0
0
0
0
0
0
0
0
0
0
0
0
0
0
0
0
0
0
0
0
0
0
0
0
0
0
0
0
0
0
0
0
0
0
0
4.16991e-05
0.000473798
0.000407706
0.000189397
7.40272e-05
0.00012312
6.7746e-05
0.000109791
0.0001666
0.000144356
0.000334888
0.000146866
0.000204969
9.65218e-05
0.000147586
6.52528e-05
6.12927e-05
6.71274e-05
8.27371e-05
0.000180718
0.000351104
0.000236458
0.000129058
0.000142346
0.000157319
0.000495799
0.000178299
0.00020264
0.000251313
0.000777467
0.000786441
0.000804786
0.000809204
0.000805969
0.000801916
0.00080048
0.00035106
0.000352244
0.000812338
0.000370908
0.000820603
0.000400274
0.000821888
0.000780319
0.00017654
0.000114027
1.61762e-05
5.84627e-06
1.8192e-06
7.30553e-07
1.665e-07
9.78196e-08
9.04584e-08
8.32196e-08
5.39559e-08
0
0
0
0
0
0
0
0
0
0
0
0
0
0
0
0
0
0
0
0
0
0
0
0
0
0
0
0
0
0
0
0
0
0
0
0
0
0
0
0
0
0
0
0
0
5.31811e-05
0.000100287
0.000149244
0.000684411
0.000205808
0.000233965
8.53077e-05
0.000108601
0.000295538
0.00026127
0.000435648
0.000650685
0.000238734
0.000160986
0.000106037
7.24054e-05
6.24231e-05
6.53322e-05
8.66383e-05
0.00018954
0.000117329
0.000118613
0.000141017
0.000176267
0.000526411
0.000214362
0.000224805
0.00024581
0.000278347
0.000316916
0.000784518
0.000358685
0.000348205
0.000336648
0.000328775
0.000786378
0.00078407
0.000321695
0.000801659
0.000811169
0.000367194
0.000822039
0.000817052
0.000288241
0.000152214
2.65141e-05
1.32695e-05
4.76834e-06
1.55669e-06
7.2745e-07
1.4595e-07
8.49195e-08
7.84702e-08
8.48357e-08
1.20609e-07
0
0
0
0
0
0
0
0
0
0
0
0
0
0
0
0
0
0
0
0
0
0
0
0
0
0
0
0
0
0
0
0
0
0
0
0
0
0
0
0
0
0
0
0
0
1.39763e-06
6.4843e-05
9.86945e-05
0.00020832
0.000295032
0.000177993
0.000105259
0.000114107
0.000195631
0.000755046
0.000448864
0.000823105
0.000744163
0.000243831
0.000146397
9.66505e-05
7.50311e-05
7.18203e-05
0.000100005
0.000104446
0.000104283
0.000117255
0.000146913
0.000501551
0.000461328
0.000235513
0.000554564
0.000643775
0.000683926
0.000721085
0.000303802
0.000327582
0.000322109
0.000324044
0.000757409
0.000747653
0.00074736
0.000300754
0.000330253
0.00080431
0.000811771
0.000369337
0.000808716
0.000276636
0.000338538
9.70627e-05
1.86391e-05
3.91123e-06
1.51876e-06
6.69901e-07
1.05239e-07
1.56511e-08
7.32125e-10
4.29978e-09
1.66196e-10
0
0
0
0
0
0
0
0
0
0
0
0
0
0
0
0
0
0
0
0
0
0
0
0
0
0
0
0
0
0
0
0
0
0
0
0
0
0
0
0
0
0
0
0
0
9.03609e-06
5.51886e-05
4.93078e-05
0.000100278
0.000218164
0.000455036
9.11447e-05
9.11588e-05
0.000166358
0.000252549
0.000362229
0.000815893
0.000803049
0.000725656
0.000162988
0.000107263
0.000194357
8.15233e-05
0.000206268
9.75387e-05
9.91743e-05
0.000311878
0.000133891
0.000165323
0.000200896
0.000214468
0.000219969
0.000224619
0.000237031
0.000258442
0.00028128
0.000761032
0.00075447
0.000277703
0.000718372
0.00024583
0.000247569
0.000263591
0.000291864
0.000332479
0.000805968
0.000810918
0.000322988
0.000239905
0.000238991
7.67499e-05
9.07734e-06
3.41725e-06
1.44973e-06
2.36761e-07
1.25285e-08
0
0
0
0
0
0
0
0
0
0
0
0
0
0
0
0
0
0
0
0
0
0
0
0
0
0
0
0
0
0
0
0
0
0
0
0
0
0
0
0
0
0
0
0
0
0
0
0
0
1.06787e-05
3.73972e-05
4.37966e-05
3.49093e-05
6.90964e-05
6.31861e-05
4.07497e-05
4.47451e-05
8.59e-05
0.000128962
0.000161695
0.000162905
0.000501633
0.000324215
8.38714e-05
7.23947e-05
7.2538e-05
8.31006e-05
9.64644e-05
9.66679e-05
0.000100925
0.000108804
0.000117932
0.000138138
0.000161642
0.000446162
0.000189528
0.000469613
0.000205477
0.000226131
0.000647654
0.000670466
0.000249584
0.000688297
0.000624716
0.000221851
0.000232642
0.000272263
0.000714386
0.000296294
0.000786092
0.000329575
0.000278674
0.00065151
0.000168466
1.66705e-05
7.65198e-06
2.76539e-06
8.90773e-07
1.5421e-07
4.01231e-30
0
0
0
0
0
0
0
0
0
0
0
0
0
0
0
0
0
0
0
0
0
0
0
0
0
0
0
0
0
0
0
0
0
0
0
0
0
0
0
0
0
0
0
0
0
0
0
0
0
1.06124e-05
2.09862e-05
4.59941e-05
5.16295e-05
3.29571e-05
2.2671e-05
1.88272e-05
2.09551e-05
3.33293e-05
4.23789e-05
4.74192e-05
4.54967e-05
3.63387e-05
2.71873e-05
3.57597e-05
3.51251e-05
5.76679e-05
8.09899e-05
9.08281e-05
0.000371875
9.70255e-05
0.000385591
0.000100084
0.000110786
0.000128596
0.00014589
0.000154504
0.000158291
0.000176276
0.000496805
0.000547446
0.000209387
0.000576808
0.000576129
0.000199136
0.000200457
0.000519396
0.000254496
0.000608248
0.000275008
0.000300911
0.000773186
0.000253276
0.000182097
0.00013185
1.35259e-05
6.47571e-06
2.16046e-06
6.2804e-07
1.35195e-07
1.24416e-09
0
0
0
0
0
0
0
0
0
0
0
0
0
0
0
0
0
0
0
0
0
0
0
0
0
0
0
0
0
0
0
0
0
0
0
0
0
0
0
0
0
0
0
0
0
0
0
0
0
1.05351e-05
1.25633e-05
2.2301e-05
3.95145e-05
5.20963e-05
4.40953e-05
3.79047e-05
3.31442e-05
2.939e-05
2.72639e-05
2.32883e-05
2.01514e-05
1.61209e-05
1.26531e-05
1.13119e-05
1.31071e-05
2.91981e-05
0.000178189
6.85453e-05
9.42388e-05
0.000384665
8.58709e-05
9.15109e-05
9.90816e-05
0.000107254
0.000117382
0.000524101
0.000134597
0.000153508
0.000485969
0.000176852
0.000175089
0.000175901
0.00017555
0.000175262
0.0001833
0.000211017
0.000252479
0.000518848
0.000627411
0.000276846
0.000272929
0.000225508
0.000510635
0.000117622
1.12622e-05
5.40237e-06
1.84221e-06
7.37687e-07
1.63468e-07
7.35458e-08
1.84421e-30
0
0
0
0
0
0
0
0
0
0
0
0
0
0
0
0
0
0
0
0
0
0
0
0
0
0
0
0
0
0
0
0
0
0
0
0
0
0
0
0
0
0
0
0
0
0
0
0
1.05837e-05
1.10245e-05
1.26601e-05
1.87449e-05
3.351e-05
4.63098e-05
4.87803e-05
4.74016e-05
4.24849e-05
3.55239e-05
2.94586e-05
2.33764e-05
1.71443e-05
1.18138e-05
8.56261e-06
8.22129e-06
1.25103e-05
2.36988e-05
4.13582e-05
0.000242721
0.000263223
6.93355e-05
8.30714e-05
0.000499397
0.000488401
0.000105487
0.000111799
0.000118481
0.000132688
0.000534797
0.000533015
0.000150573
0.000149663
0.000150101
0.00048098
0.000169114
0.000214082
0.000437919
0.000498583
0.000274491
0.000284504
0.000257541
0.000196479
0.000120556
2.22342e-05
9.75635e-06
4.37923e-06
1.6331e-06
7.22136e-07
2.59792e-07
9.21607e-08
7.46637e-08
0
0
0
0
0
0
0
0
0
0
0
0
0
0
0
0
0
0
0
0
0
0
0
0
0
0
0
0
0
0
0
0
0
0
0
0
0
0
0
0
0
0
0
0
0
0
0
0
1.07166e-05
1.09672e-05
1.11103e-05
1.18171e-05
1.6265e-05
2.46811e-05
2.92545e-05
3.10186e-05
2.96963e-05
2.69618e-05
2.4129e-05
2.07082e-05
1.64698e-05
1.14141e-05
7.44561e-06
5.95058e-06
7.03192e-06
1.59426e-05
2.3515e-05
3.70511e-05
4.89717e-05
5.97034e-05
7.42988e-05
8.88095e-05
9.32908e-05
9.94365e-05
0.000477446
0.000104756
0.000112569
0.000118592
0.000121137
0.000526406
0.000524203
0.000130502
0.000140326
0.000161522
0.000200479
0.000250214
0.00026456
0.000261591
0.000258951
0.000235627
0.000169668
9.03105e-05
1.72327e-05
8.27866e-06
3.54338e-06
1.55099e-06
6.46266e-07
1.61841e-07
9.47652e-08
8.84841e-08
0
0
0
0
0
0
0
0
0
0
0
0
0
0
0
0
0
0
0
0
0
0
0
0
0
0
0
0
0
0
0
0
0
0
0
0
0
0
0
0
0
0
0
0
0
0
0
0
1.09101e-05
1.11701e-05
1.09743e-05
1.03212e-05
1.01297e-05
1.09719e-05
1.1752e-05
1.22931e-05
1.40811e-05
1.477e-05
1.57711e-05
1.58152e-05
1.40654e-05
1.06293e-05
6.8169e-06
4.61835e-06
4.84525e-06
7.21381e-06
1.65401e-05
2.57379e-05
0.00017517
5.70602e-05
7.14715e-05
8.10751e-05
8.74025e-05
9.35659e-05
9.45673e-05
9.21745e-05
9.45969e-05
9.6662e-05
0.000100089
0.000445713
0.000109904
0.000113981
0.000127504
0.000159814
0.000261172
0.000211614
0.000260513
0.000249198
0.000241224
0.000587314
0.000140175
6.21753e-05
1.42357e-05
7.02406e-06
2.92784e-06
1.23412e-06
3.40425e-07
1.22741e-07
8.95061e-08
2.0275e-08
0
0
0
0
0
0
0
0
0
0
0
0
0
0
0
0
0
0
0
0
0
0
0
0
0
0
0
0
0
0
0
0
0
0
0
0
0
0
0
0
0
0
0
0
0
0
0
0
1.11428e-05
1.12821e-05
1.06701e-05
9.52739e-06
7.51898e-06
5.43691e-06
4.29062e-06
4.60402e-06
6.11792e-06
8.1164e-06
1.006e-05
1.14521e-05
1.13725e-05
9.478e-06
6.52e-06
4.02374e-06
3.49742e-06
5.1619e-06
1.12394e-05
1.84471e-05
3.15904e-05
5.07079e-05
7.18588e-05
7.62003e-05
7.97366e-05
0.000374552
0.000372334
8.00476e-05
7.84212e-05
7.91568e-05
8.30323e-05
8.86399e-05
9.36812e-05
0.000102053
0.000122112
0.000158454
0.000179354
0.000197555
0.000217952
0.000236335
0.000221119
0.000188165
0.000113857
0.000135747
1.226e-05
6.02632e-06
2.38711e-06
9.30343e-07
2.2782e-07
1.07679e-07
4.96383e-08
0
0
0
0
0
0
0
0
0
0
0
0
0
0
0
0
0
0
0
0
0
0
0
0
0
0
0
0
0
0
0
0
0
0
0
0
0
0
0
0
0
0
0
0
0
0
0
0
0
1.13339e-05
1.07825e-05
9.80504e-06
7.89971e-06
5.26118e-06
2.86508e-06
1.56603e-06
1.93548e-06
3.07922e-06
4.72121e-06
6.70057e-06
8.43418e-06
9.1626e-06
8.42473e-06
6.39104e-06
4.06816e-06
2.83256e-06
3.69493e-06
6.83121e-06
1.55164e-05
2.38576e-05
4.02925e-05
0.000220861
6.60369e-05
6.95087e-05
6.95522e-05
6.94526e-05
6.79431e-05
6.44431e-05
6.44928e-05
6.83619e-05
7.37333e-05
8.07736e-05
0.000217214
0.000157463
0.000148906
0.000158913
0.000180682
0.000206426
0.000220798
0.000198984
0.000165197
8.77843e-05
2.73343e-05
1.073e-05
5.2679e-06
2.04901e-06
7.01415e-07
1.78211e-07
9.48739e-08
4.03485e-08
0
0
0
0
0
0
0
0
0
0
0
0
0
0
0
0
0
0
0
0
0
0
0
0
0
0
0
0
0
0
0
0
0
0
0
0
0
0
0
0
0
0
0
0
0
0
0
0
0
1.10948e-05
9.36956e-06
7.14251e-06
5.65872e-06
3.17418e-06
1.28385e-06
7.8797e-07
1.01442e-06
1.81047e-06
3.13404e-06
4.85729e-06
6.4888e-06
7.49108e-06
7.52599e-06
6.40968e-06
4.4814e-06
2.80625e-06
2.71298e-06
4.81778e-06
1.16947e-05
1.95517e-05
3.05675e-05
4.52467e-05
5.41216e-05
0.000206275
5.6487e-05
5.49112e-05
0.000213064
5.24417e-05
5.17742e-05
5.54621e-05
6.12363e-05
6.9901e-05
8.48728e-05
0.000115017
0.000131613
0.000134833
0.000164001
0.000193784
0.000195312
0.000178539
0.0001397
6.29301e-05
9.57847e-05
9.52224e-06
4.51555e-06
1.81277e-06
5.22622e-07
1.43703e-07
7.7443e-08
2.9113e-31
0
0
0
0
0
0
0
0
0
0
0
0
0
0
0
0
0
0
0
0
0
0
0
0
0
0
0
0
0
0
0
0
0
0
0
0
0
0
0
0
0
0
0
0
0
0
0
0
0
9.97191e-06
6.26264e-06
4.22907e-06
2.7708e-06
1.44016e-06
6.15533e-07
4.65078e-07
7.0478e-07
1.29731e-06
2.38647e-06
3.82698e-06
5.23586e-06
6.26956e-06
6.74954e-06
6.36348e-06
4.99475e-06
3.23996e-06
2.34701e-06
3.36721e-06
7.21974e-06
4.64871e-05
2.28397e-05
3.20149e-05
4.13699e-05
0.000154417
4.38007e-05
4.22223e-05
4.39967e-05
4.11214e-05
4.06378e-05
4.448e-05
5.00978e-05
5.9469e-05
7.66364e-05
9.99027e-05
0.000106558
0.000112838
0.000148819
0.000180461
0.00017547
0.000552344
0.000115506
4.23102e-05
1.65983e-05
8.287e-06
3.72537e-06
1.54848e-06
3.67942e-07
1.12509e-07
7.13575e-08
0
0
0
0
0
0
0
0
0
0
0
0
0
0
0
0
0
0
0
0
0
0
0
0
0
0
0
0
0
0
0
0
0
0
0
0
0
0
0
0
0
0
0
0
0
0
0
0
0
0
6.67818e-06
2.35581e-06
1.39175e-06
8.9118e-07
5.71313e-07
4.15971e-07
4.14177e-07
5.9486e-07
1.07203e-06
1.97058e-06
3.20145e-06
4.39895e-06
5.35686e-06
6.03465e-06
6.16796e-06
5.40371e-06
3.87319e-06
2.51015e-06
2.50001e-06
4.60927e-06
1.08029e-05
1.85219e-05
2.23506e-05
2.91207e-05
3.28339e-05
3.30234e-05
0.000119272
3.25391e-05
3.113e-05
3.10656e-05
3.53244e-05
4.03796e-05
5.18885e-05
6.48491e-05
7.6643e-05
8.06235e-05
9.61037e-05
0.000138369
0.000164414
0.000152951
0.000130551
9.21208e-05
2.79854e-05
1.35855e-05
7.11445e-06
3.06835e-06
1.23972e-06
2.54965e-07
9.51883e-08
2.68845e-08
0
0
0
0
0
0
0
0
0
0
0
0
0
0
0
0
0
0
0
0
0
0
0
0
0
0
0
0
0
0
0
0
0
0
0
0
0
0
0
0
0
0
0
0
0
0
0
0
0
0
1.00881e-06
5.68423e-07
5.02019e-07
4.90176e-07
4.33578e-07
3.7758e-07
3.89825e-07
5.38216e-07
9.50029e-07
1.75938e-06
2.78845e-06
3.79117e-06
4.64713e-06
5.38956e-06
5.83799e-06
5.59391e-06
4.47e-06
2.99916e-06
2.24399e-06
2.98129e-06
5.44694e-06
1.26853e-05
1.73117e-05
2.02408e-05
2.35994e-05
9.51842e-05
8.39755e-05
2.32241e-05
2.24566e-05
2.29178e-05
7.59335e-05
3.29214e-05
4.69488e-05
5.09255e-05
5.33145e-05
6.26741e-05
8.50302e-05
0.000131488
0.000143762
0.000128812
0.00010773
6.72686e-05
1.91203e-05
4.46313e-05
6.13244e-06
2.48342e-06
1.00835e-06
2.03446e-07
7.48569e-08
3.51805e-09
5.64318e-11
0
0
0
0
0
0
0
0
0
0
0
0
0
0
0
0
0
0
0
0
0
0
0
0
0
0
0
0
0
0
0
0
0
0
0
0
0
0
0
0
0
0
0
0
0
0
0
0
0
7.56491e-07
7.9546e-07
7.29903e-07
6.24867e-07
4.92274e-07
3.87388e-07
3.68846e-07
4.93377e-07
8.57516e-07
1.51554e-06
2.29278e-06
3.11985e-06
3.91416e-06
4.65744e-06
5.29681e-06
5.54798e-06
5.10331e-06
3.98581e-06
2.7733e-06
2.16874e-06
2.4545e-06
4.34089e-06
9.09451e-06
1.29632e-05
1.32173e-05
1.32327e-05
1.27261e-05
1.22931e-05
1.19162e-05
1.24982e-05
1.56975e-05
2.24282e-05
2.15739e-05
2.25168e-05
2.86052e-05
4.08807e-05
6.99494e-05
0.000120658
0.000110158
9.77122e-05
7.73424e-05
3.51754e-05
8.27908e-05
9.38022e-06
4.4636e-06
1.60016e-06
4.43343e-07
1.13161e-07
4.32734e-11
0
0
0
0
0
0
0
0
0
0
0
0
0
0
0
0
0
0
0
0
0
0
0
0
0
0
0
0
0
0
0
0
0
0
0
0
0
0
0
0
0
0
0
0
0
0
0
0
0
0
0
8.46069e-08
1.69387e-07
2.39091e-07
2.63641e-07
2.51978e-07
2.3994e-07
2.7291e-07
4.09793e-07
7.30896e-07
1.24813e-06
1.83358e-06
2.38484e-06
3.05222e-06
3.74037e-06
4.35579e-06
4.78853e-06
4.80545e-06
4.27374e-06
3.32807e-06
2.35713e-06
1.71806e-06
1.7566e-06
2.56496e-06
4.13837e-06
5.85205e-06
6.5461e-06
6.37347e-06
5.5046e-06
4.39719e-06
3.92514e-06
4.95076e-06
7.05269e-06
6.59477e-06
8.95017e-06
1.45157e-05
2.74649e-05
6.10064e-05
9.29404e-05
7.40904e-05
6.52359e-05
4.14254e-05
9.31013e-05
4.35526e-05
6.84049e-06
2.73167e-06
9.19916e-07
2.13462e-07
2.39798e-08
0
0
0
0
0
0
0
0
0
0
0
0
0
0
0
0
0
0
0
0
0
0
0
0
0
0
0
0
0
0
0
0
0
0
0
0
0
0
0
0
0
0
0
0
0
0
0
0
0
0
0
0
1.102e-08
3.79716e-08
6.81612e-08
9.46574e-08
1.15158e-07
1.42256e-07
2.02816e-07
3.4232e-07
6.14503e-07
1.01749e-06
1.47295e-06
1.9173e-06
2.37181e-06
2.99436e-06
3.54844e-06
3.95011e-06
4.08667e-06
3.84924e-06
3.26331e-06
2.49179e-06
1.75133e-06
1.23144e-06
1.03755e-06
1.16449e-06
1.45013e-06
1.70118e-06
1.76966e-06
1.48143e-06
1.39225e-06
1.2742e-06
1.49615e-06
2.28698e-06
3.38933e-06
4.81122e-06
9.05481e-06
2.1509e-05
6.01601e-05
5.54575e-05
4.68239e-05
3.54281e-05
1.75174e-05
1.06771e-05
8.86784e-06
4.45142e-06
1.59455e-06
4.7982e-07
1.25296e-07
1.26079e-30
0
0
0
0
0
0
0
0
0
0
0
0
0
0
0
0
0
0
0
0
0
0
0
0
0
0
0
0
0
0
0
0
0
0
0
0
0
0
0
0
0
0
0
0
0
0
0
0
0
0
0
0
2.18701e-09
9.20267e-09
2.09662e-08
3.68075e-08
6.05675e-08
1.00086e-07
1.71687e-07
3.06115e-07
5.31006e-07
8.41119e-07
1.19667e-06
1.56551e-06
1.95412e-06
2.40605e-06
2.95264e-06
3.32683e-06
3.48207e-06
3.36736e-06
2.99165e-06
2.44112e-06
1.83644e-06
1.30466e-06
8.91365e-07
6.12962e-07
4.62759e-07
4.46587e-07
4.83292e-07
5.39602e-07
6.21747e-07
6.61142e-07
8.15073e-07
1.04285e-06
2.05667e-06
3.25127e-06
7.2565e-06
2.1014e-05
4.21454e-05
3.21684e-05
2.50446e-05
1.46726e-05
8.84735e-06
9.44784e-06
6.19723e-06
2.6793e-06
9.81988e-07
2.55969e-07
6.75811e-08
0
0
0
0
0
0
0
0
0
0
0
0
0
0
0
0
0
0
0
0
0
0
0
0
0
0
0
0
0
0
0
0
0
0
0
0
0
0
0
0
0
0
0
0
0
0
0
0
0
0
0
0
0
0
2.88359e-09
7.73125e-09
2.01823e-08
4.60584e-08
9.06277e-08
1.69398e-07
2.93873e-07
4.74999e-07
7.11556e-07
9.89469e-07
1.2977e-06
1.64671e-06
2.06152e-06
2.5208e-06
2.91309e-06
3.10343e-06
3.06358e-06
2.83308e-06
2.45626e-06
1.98385e-06
1.49128e-06
1.04159e-06
6.72174e-07
4.08389e-07
2.65335e-07
2.2697e-07
2.28885e-07
2.75339e-07
3.29304e-07
4.53819e-07
6.60838e-07
1.57192e-06
2.82485e-06
7.56172e-06
2.45991e-05
2.00883e-05
1.68136e-05
1.11015e-05
7.30726e-06
8.67177e-06
7.87177e-06
4.09456e-06
1.47443e-06
4.42165e-07
1.33411e-07
1.03995e-10
0
0
0
0
0
0
0
0
0
0
0
0
0
0
0
0
0
0
0
0
0
0
0
0
0
0
0
0
0
0
0
0
0
0
0
0
0
0
0
0
0
0
0
0
0
0
0
0
0
0
0
0
0
0
3.46121e-11
6.13183e-09
1.7643e-08
4.43617e-08
9.34214e-08
1.65407e-07
2.70792e-07
4.10166e-07
5.94087e-07
8.20184e-07
1.25205e-06
1.8137e-06
2.46606e-06
3.00911e-06
3.42947e-06
3.59167e-06
3.50782e-06
3.21854e-06
2.77745e-06
2.2443e-06
1.6859e-06
1.16238e-06
7.17383e-07
3.87976e-07
2.00121e-07
1.23995e-07
9.11228e-08
1.17032e-07
1.88227e-07
3.15232e-07
6.6992e-07
1.63421e-06
4.04062e-06
9.37146e-06
1.15874e-05
9.58788e-06
7.09419e-06
6.60911e-06
7.08922e-06
8.32968e-06
5.03493e-06
2.19764e-06
8.00943e-07
2.05669e-07
2.57217e-08
0
0
0
0
0
0
0
0
0
0
0
0
0
0
0
0
0
0
0
0
0
0
0
0
0
0
0
0
0
0
0
0
0
0
0
0
0
0
0
0
0
0
0
0
0
0
0
0
0
0
0
0
0
0
0
6.2191e-11
4.36322e-09
1.50505e-08
3.58777e-08
6.59234e-08
1.10377e-07
1.73736e-07
2.76864e-07
4.54468e-07
9.0502e-07
1.56856e-06
2.3015e-06
3.15244e-06
3.85869e-06
4.28298e-06
4.41098e-06
4.23343e-06
3.80548e-06
3.21024e-06
2.53113e-06
1.84663e-06
1.22318e-06
7.08384e-07
3.42388e-07
1.49032e-07
7.95602e-08
4.44233e-08
7.37827e-08
1.51928e-07
2.88026e-07
8.70039e-07
1.75592e-06
3.03767e-06
4.71353e-06
5.37348e-06
4.18161e-06
3.74687e-06
5.99867e-06
6.26512e-06
5.26712e-06
2.88644e-06
1.13402e-06
3.34503e-07
1.12979e-07
0
0
0
0
0
0
0
0
0
0
0
0
0
0
0
0
0
0
0
0
0
0
0
0
0
0
0
0
0
0
0
0
0
0
0
0
0
0
0
0
0
0
0
0
0
0
0
0
0
0
0
0
0
0
0
0
0
1.61612e-09
3.44814e-09
7.03535e-09
9.90751e-09
1.28289e-08
2.60161e-08
8.64063e-08
3.46946e-07
9.58738e-07
1.80813e-06
2.70392e-06
3.73072e-06
4.74181e-06
5.24904e-06
5.36061e-06
5.0764e-06
4.46649e-06
3.66162e-06
2.79361e-06
1.96053e-06
1.23599e-06
6.6713e-07
2.88797e-07
1.08133e-07
5.62741e-08
3.25226e-08
8.60422e-08
1.73868e-07
3.42731e-07
5.6224e-07
1.04174e-06
1.74775e-06
2.37989e-06
2.56568e-06
2.77103e-06
3.70792e-06
5.8616e-06
4.35251e-06
2.96122e-06
1.36539e-06
5.25775e-07
1.74327e-07
5.81331e-08
0
0
0
0
0
0
0
0
0
0
0
0
0
0
0
0
0
0
0
0
0
0
0
0
0
0
0
0
0
0
0
0
0
0
0
0
0
0
0
0
0
0
0
0
0
0
0
0
0
0
0
0
0
0
0
0
0
0
1.54709e-09
3.45138e-09
3.22378e-09
4.80853e-09
3.49662e-09
8.84459e-09
1.82865e-07
8.30018e-07
1.79513e-06
2.82568e-06
4.01176e-06
5.32097e-06
6.03343e-06
6.22578e-06
5.87692e-06
5.0921e-06
4.07169e-06
3.01121e-06
2.03868e-06
1.22922e-06
6.22241e-07
2.38964e-07
6.93544e-08
2.84158e-08
4.81027e-08
1.09988e-07
1.97708e-07
2.779e-07
4.59793e-07
8.56926e-07
1.25476e-06
1.51161e-06
1.9004e-06
3.02438e-06
3.80976e-06
4.45546e-06
2.66359e-06
1.33854e-06
6.50876e-07
2.10209e-07
9.47586e-08
0
0
0
0
0
0
0
0
0
0
0
0
0
0
0
0
0
0
0
0
0
0
0
0
0
0
0
0
0
0
0
0
0
0
0
0
0
0
0
0
0
0
0
0
0
0
0
0
0
0
0
0
0
0
0
0
0
0
0
4.24038e-10
1.03736e-09
2.57402e-09
3.34721e-09
3.94885e-09
1.06262e-08
8.55597e-08
5.92517e-07
1.57539e-06
2.71227e-06
4.06445e-06
5.57102e-06
6.51293e-06
6.85397e-06
6.51462e-06
5.61177e-06
4.41699e-06
3.19676e-06
2.11503e-06
1.24442e-06
6.11575e-07
2.21364e-07
5.13361e-08
3.31345e-08
8.00611e-08
1.23963e-07
1.8723e-07
3.42039e-07
7.39482e-07
1.29142e-06
1.84601e-06
1.80494e-06
2.66862e-06
3.4755e-06
3.24006e-06
2.84775e-06
1.39788e-06
6.68681e-07
2.44688e-07
1.01546e-07
4.03274e-11
0
0
0
0
0
0
0
0
0
0
0
0
0
0
0
0
0
0
0
0
0
0
0
0
0
0
0
0
0
0
0
0
0
0
0
0
0
0
0
0
0
0
0
0
0
0
0
0
0
0
0
0
0
0
0
0
0
0
0
0
3.97415e-10
1.05723e-09
2.15155e-09
3.50598e-09
1.08619e-08
4.92352e-08
3.42173e-07
1.21812e-06
2.36349e-06
3.85628e-06
5.49404e-06
6.64612e-06
7.16892e-06
6.92252e-06
5.99688e-06
4.70616e-06
3.38547e-06
2.23657e-06
1.32944e-06
6.76386e-07
2.73662e-07
9.19813e-08
5.68698e-08
8.8506e-08
1.78834e-07
3.93041e-07
8.67008e-07
1.73266e-06
2.49097e-06
3.57605e-06
2.72398e-06
3.42983e-06
3.28468e-06
2.39104e-06
1.57206e-06
7.62392e-07
2.7236e-07
1.15064e-07
1.60991e-10
0
0
0
0
0
0
0
0
0
0
0
0
0
0
0
0
0
0
0
0
0
0
0
0
0
0
0
0
0
0
0
0
0
0
0
0
0
0
0
0
0
0
0
0
0
0
0
0
0
0
0
0
0
0
0
0
0
0
0
0
0
0
6.62271e-10
1.22772e-09
1.96791e-09
7.45224e-09
3.85849e-08
1.60039e-07
8.06665e-07
1.93869e-06
3.39608e-06
5.1018e-06
6.43941e-06
7.15462e-06
7.07979e-06
6.24167e-06
4.95806e-06
3.61482e-06
2.4497e-06
1.53271e-06
8.65948e-07
4.32812e-07
2.23939e-07
1.81111e-07
2.55569e-07
4.91986e-07
1.00355e-06
1.90438e-06
3.50618e-06
3.67108e-06
3.84689e-06
3.26802e-06
3.11341e-06
2.41206e-06
1.38989e-06
7.85956e-07
3.18296e-07
1.4498e-07
2.4278e-08
0
0
0
0
0
0
0
0
0
0
0
0
0
0
0
0
0
0
0
0
0
0
0
0
0
0
0
0
0
0
0
0
0
0
0
0
0
0
0
0
0
0
0
0
0
0
0
0
0
0
0
0
0
0
0
0
0
0
0
0
0
0
0
0
0
1.28854e-09
3.18002e-09
2.17261e-08
9.39849e-08
4.17203e-07
1.38277e-06
2.6753e-06
4.38678e-06
5.91134e-06
6.8115e-06
6.96639e-06
6.3326e-06
5.17605e-06
3.90293e-06