/*--------------------------------*- C++ -*----------------------------------*\
  =========                 |
  \\      /  F ield         | OpenFOAM: The Open Source CFD Toolbox
   \\    /   O peration     | Website:  https://openfoam.org
    \\  /    A nd           | Version:  6
     \\/     M anipulation  |
\*---------------------------------------------------------------------------*/
FoamFile
{
    version     2.0;
    format      ascii;
    class       volScalarField;
    location    "0.005";
    object      CO;
}
// * * * * * * * * * * * * * * * * * * * * * * * * * * * * * * * * * * * * * //

dimensions      [0 0 0 0 0 0 0];

internalField   nonuniform List<scalar> 
8000
(
1.99716e-06
1.99534e-06
1.99476e-06
1.99461e-06
2.02101e-06
2.47481e-06
6.40757e-06
1.79797e-05
3.06059e-05
4.1884e-05
5.26827e-05
6.29384e-05
7.31107e-05
8.05106e-05
8.13703e-05
8.09488e-05
8.86874e-05
0.000110118
0.000149363
0.000269456
0.000764736
0.00296346
0.00838854
0.0097127
0.0160557
0.0268737
0.0326644
0.0332643
0.0312641
0.0291596
0.0291113
0.0313711
0.0342164
0.0369098
0.0383281
0.0394237
0.0402777
0.0416983
0.0420506
0.042574
0.0426662
0.0425538
0.0417773
0.0398763
0.0365423
0.0194847
0.00819571
0.0082049
0.00745286
0.00273118
0.000483012
6.65423e-05
4.40088e-06
2.18436e-07
0
0
0
0
0
0
0
0
0
0
0
0
0
0
0
0
0
0
0
0
0
0
0
0
0
0
0
0
0
0
0
0
0
0
0
0
0
0
0
0
0
0
0
0
0
0
1.9951e-06
1.99137e-06
1.99244e-06
1.9975e-06
2.06395e-06
3.04846e-06
1.10519e-05
2.89977e-05
4.7426e-05
6.53099e-05
8.04916e-05
9.18017e-05
0.000102444
0.000113816
0.000112395
0.000104078
0.000107575
0.00012903
0.000168325
0.000290692
0.000826531
0.00419845
0.0463551
0.0141779
0.0186916
0.0313109
0.0367123
0.0356414
0.0323569
0.0291725
0.0287948
0.0311546
0.0341816
0.0369835
0.0384518
0.0400854
0.0403366
0.0422123
0.0420701
0.0426804
0.0428197
0.0425705
0.0417936
0.0399064
0.0366976
0.0211244
0.00878911
0.00785184
0.00830751
0.00284751
0.000641275
0.000101236
5.30889e-06
2.26648e-07
0
0
0
0
0
0
0
0
0
0
0
0
0
0
0
0
0
0
0
0
0
0
0
0
0
0
0
0
0
0
0
0
0
0
0
0
0
0
0
0
0
0
0
0
0
0
1.99748e-06
2.92314e-05
1.99638e-06
7.30588e-05
2.33926e-06
5.44106e-06
2.11543e-05
4.87041e-05
0.000324813
0.000119719
0.000144084
0.000157871
0.000165614
0.000192057
0.000803926
0.000626009
0.000145841
0.000180789
0.000230481
0.000343033
0.000732788
0.00239738
0.0092026
0.00884617
0.0133302
0.0277437
0.0547941
0.0364474
0.03063
0.0272952
0.0276447
0.0307414
0.034186
0.0371713
0.0387336
0.0399477
0.0409956
0.0422977
0.0425311
0.0427179
0.0428584
0.0427463
0.0422415
0.0404804
0.0365967
0.0233505
0.0170344
0.00672339
0.00293304
0.00193942
0.000436802
5.8326e-05
3.1455e-06
2.40502e-07
0
0
0
0
0
0
0
0
0
0
0
0
0
0
0
0
0
0
0
0
0
0
0
0
0
0
0
0
0
0
0
0
0
0
0
0
0
0
0
0
0
0
0
0
0
0
1.99554e-06
1.99597e-06
2.13193e-06
3.25469e-06
7.13283e-06
1.39944e-05
3.17175e-05
6.46122e-05
0.000120832
0.000787698
0.000367581
0.00039442
0.00038043
0.000966666
0.000175176
0.00016212
0.00019187
0.000344774
0.00131978
0.00050846
0.000837565
0.00277663
0.00510209
0.00665635
0.0101664
0.0171877
0.0247059
0.0279189
0.0271378
0.0442195
0.0272458
0.030776
0.0344129
0.0374798
0.0391723
0.0402832
0.041667
0.0420334
0.0425884
0.0429119
0.0429055
0.0427997
0.0423036
0.0405652
0.0368516
0.022475
0.0074973
0.00455333
0.00302557
0.00107624
0.000221478
2.67968e-05
1.89672e-06
2.63797e-07
0
0
0
0
0
0
0
0
0
0
0
0
0
0
0
0
0
0
0
0
0
0
0
0
0
0
0
0
0
0
0
0
0
0
0
0
0
0
0
0
0
0
0
0
0
0
1.99478e-06
1.99656e-06
0.000119429
1.21484e-05
0.000199955
3.17475e-05
4.31109e-05
0.000202843
0.000138703
0.00101968
0.00461764
0.00387924
0.00239575
0.00031755
0.00020545
0.00082981
0.000300875
0.00161133
0.000764695
0.000878123
0.00224876
0.00289599
0.00386982
0.00748514
0.0109847
0.0138666
0.0210515
0.0377202
0.0327633
0.0272871
0.0273251
0.0312343
0.034823
0.0374651
0.0401805
0.0556926
0.0419949
0.0425288
0.0428867
0.0429699
0.0429537
0.0428538
0.042434
0.0411489
0.0371225
0.0222946
0.00660217
0.00341276
0.00175243
0.000564521
0.000123079
1.69737e-05
2.01403e-06
2.57073e-07
0
0
0
0
0
0
0
0
0
0
0
0
0
0
0
0
0
0
0
0
0
0
0
0
0
0
0
0
0
0
0
0
0
0
0
0
0
0
0
0
0
0
0
0
0
0
1.99523e-06
1.99574e-06
6.36996e-06
0.000125239
5.74943e-05
0.000174309
5.33297e-05
7.17183e-05
0.00011202
0.000193944
0.000378934
0.000391536
0.000289156
0.000210085
0.000204121
0.000282405
0.000550597
0.0023206
0.00187414
0.00331606
0.00202845
0.00355464
0.00404702
0.00810861
0.0148807
0.0140669
0.0171829
0.0427468
0.0378143
0.0221704
0.0255098
0.0318848
0.0497956
0.0378031
0.0399148
0.0416804
0.0420614
0.0427039
0.0429248
0.0430238
0.042995
0.0428979
0.0558907
0.0412508
0.0374393
0.0235892
0.00701145
0.00323255
0.00129719
0.000422151
0.000144678
3.92547e-05
3.33523e-06
2.66358e-07
0
0
0
0
0
0
0
0
0
0
0
0
0
0
0
0
0
0
0
0
0
0
0
0
0
0
0
0
0
0
0
0
0
0
0
0
0
0
0
0
0
0
0
0
0
0
1.99376e-06
2.00415e-06
3.11751e-06
1.13686e-05
2.67068e-05
3.84907e-05
0.000204357
8.50769e-05
0.000113269
0.000140028
0.000592647
0.00072663
0.000675986
0.000203452
0.000266131
0.000457655
0.000818405
0.00183419
0.00672675
0.00350995
0.0050595
0.0034912
0.00581364
0.00875496
0.0370392
0.0180829
0.0158193
0.0164634
0.0167815
0.0200084
0.0259004
0.0319535
0.0358758
0.0382145
0.0400453
0.042217
0.0425308
0.0428767
0.0429296
0.0555994
0.043021
0.0429293
0.0426429
0.041304
0.0378124
0.0260581
0.00811892
0.00388542
0.00137062
0.000406381
0.000205527
7.60602e-05
5.7096e-06
5.00043e-07
0
0
0
0
0
0
0
0
0
0
0
0
0
0
0
0
0
0
0
0
0
0
0
0
0
0
0
0
0
0
0
0
0
0
0
0
0
0
0
0
0
0
0
0
0
0
3.49325e-05
5.69966e-05
3.27933e-06
1.40519e-05
2.80415e-05
0.000175302
8.30593e-05
0.000141542
0.000777568
0.000180112
0.000172853
0.000175384
0.000198543
0.000320881
0.00132751
0.00184859
0.00310852
0.00531601
0.00936028
0.00959278
0.00540009
0.00546818
0.00750631
0.0093701
0.0149206
0.0181861
0.0134672
0.0137848
0.0161774
0.0226793
0.0296077
0.0338332
0.0367039
0.0387631
0.0408071
0.0420027
0.0427136
0.0428752
0.0428967
0.0430133
0.0430243
0.042958
0.0426348
0.0418023
0.0382409
0.0289864
0.00942183
0.00234139
0.00128688
8.90223e-06
6.42864e-06
4.65402e-05
4.57634e-06
6.04054e-07
0
0
0
0
0
0
0
0
0
0
0
0
0
0
0
0
0
0
0
0
0
0
0
0
0
0
0
0
0
0
0
0
0
0
0
0
0
0
0
0
0
0
0
0
0
0
3.51207e-05
7.70916e-05
7.7137e-06
3.754e-05
0.00014378
7.34901e-05
0.000310306
0.00024728
0.00184685
0.000337034
0.000952853
0.00087362
0.000314345
0.000476266
0.000698769
0.00223511
0.0035854
0.00701274
0.0282667
0.0113416
0.00827759
0.00969542
0.00827965
0.0127058
0.0165791
0.0132223
0.0130603
0.0140077
0.0194765
0.0286904
0.0454706
0.0467998
0.0379626
0.0396323
0.0420361
0.0425193
0.0428953
0.0428428
0.0428284
0.0429408
0.0555208
0.0555658
0.0426307
0.0418039
0.0540584
0.0418605
0.010398
0.00407338
0.00115177
0.000269098
0.00018134
3.18804e-05
4.59409e-06
1.03745e-06
2.45369e-07
0
0
0
0
0
0
0
0
0
0
0
0
0
0
0
0
0
0
0
0
0
0
0
0
0
0
0
0
0
0
0
0
0
0
0
0
0
0
0
0
0
0
0
0
0
1.9968e-06
6.30312e-05
9.70062e-05
0.000145753
6.56525e-05
0.000276934
0.000147213
0.000235728
0.000400273
0.00120507
0.000471396
0.000601896
0.00151664
0.00207731
0.00372269
0.00299246
0.00224865
0.00643961
0.0197288
0.0142306
0.0119591
0.0134861
0.0123168
0.0135518
0.0139444
0.013609
0.0140375
0.0155271
0.0207834
0.0451915
0.0345057
0.0372118
0.0523753
0.0400503
0.0419287
0.0558001
0.0428972
0.0427815
0.0427277
0.0428267
0.0555515
0.0429138
0.0426032
0.0417681
0.0377489
0.0277675
0.011982
0.00358558
0.000983315
0.00023617
0.000195329
3.2431e-05
6.27637e-06
2.30779e-06
5.58979e-07
0
0
0
0
0
0
0
0
0
0
0
0
0
0
0
0
0
0
0
0
0
0
0
0
0
0
0
0
0
0
0
0
0
0
0
0
0
0
0
0
0
0
0
0
0
3.83842e-05
1.30646e-05
4.10348e-05
7.3606e-05
0.000114638
0.000547993
0.000818293
0.00117704
0.000813362
0.000994264
0.00125659
0.00217981
0.00183158
0.00282443
0.00221079
0.00236091
0.00310194
0.0098907
0.0228702
0.028022
0.0158934
0.0211455
0.0166802
0.0249404
0.0213323
0.0158931
0.016961
0.0190037
0.0246714
0.0311955
0.0353253
0.037842
0.0396713
0.0414043
0.0423818
0.0557762
0.0428535
0.0556939
0.0425982
0.0426776
0.0427898
0.0428488
0.0425724
0.0412379
0.0373847
0.0263953
0.00841726
0.00313487
0.000867075
7.08195e-06
0.000156404
3.29006e-05
9.62065e-06
4.71782e-06
1.56083e-06
2.4465e-07
0
0
0
0
0
0
0
0
0
0
0
0
0
0
0
0
0
0
0
0
0
0
0
0
0
0
0
0
0
0
0
0
0
0
0
0
0
0
0
0
0
0
0
0
2.99357e-06
6.83374e-05
0.000128801
0.000678431
0.000368292
0.00115478
0.00146571
0.0015
0.00359918
0.00370585
0.0039217
0.00410923
0.00484613
0.00544945
0.00425791
0.0043222
0.00514763
0.0108849
0.0222955
0.0233048
0.0180463
0.0187694
0.0210325
0.0243416
0.0201533
0.0185799
0.0209668
0.0331841
0.0298701
0.0460084
0.0369221
0.0393371
0.0406874
0.0557699
0.0423088
0.0426432
0.0556662
0.0425528
0.0424374
0.0425076
0.0426352
0.0427992
0.0558593
0.041141
0.036899
0.0345666
0.00827733
0.00127395
0.000747264
0.000269394
4.42888e-06
3.91338e-05
1.55304e-05
9.06161e-06
4.01636e-06
6.31099e-07
0
0
0
0
0
0
0
0
0
0
0
0
0
0
0
0
0
0
0
0
0
0
0
0
0
0
0
0
0
0
0
0
0
0
0
0
0
0
0
0
0
0
0
0
4.82935e-05
0.000342531
0.000876466
0.00179244
0.00260051
0.00341493
0.00337386
0.00616193
0.0189237
0.0155328
0.00996646
0.00908267
0.00888151
0.00806759
0.00762115
0.00759865
0.0108694
0.0114706
0.0166828
0.024692
0.0227866
0.0222881
0.0251538
0.0359446
0.0229814
0.0220536
0.0242432
0.0398709
0.0324115
0.0364052
0.0383655
0.0399275
0.0420077
0.041785
0.0421372
0.0423894
0.055713
0.0557256
0.04225
0.0423256
0.0424797
0.0556633
0.0558725
0.0409993
0.0362115
0.0302011
0.00670388
0.0011061
0.000627687
0.00026993
9.90414e-05
4.03931e-05
2.95123e-05
1.70211e-05
8.77613e-06
2.24217e-06
0
0
0
0
0
0
0
0
0
0
0
0
0
0
0
0
0
0
0
0
0
0
0
0
0
0
0
0
0
0
0
0
0
0
0
0
0
0
0
0
0
0
0
0
0.000266691
0.0053425
0.00623664
0.00683064
0.00789042
0.016811
0.0109306
0.01009
0.0159396
0.0158518
0.015447
0.0143024
0.0137533
0.0129976
0.0119945
0.0113966
0.0127731
0.0211039
0.01996
0.0299087
0.0441063
0.0273799
0.0275227
0.0280906
0.0367764
0.0272961
0.0409033
0.0315076
0.0355147
0.0385615
0.0399779
0.041522
0.0557674
0.0420784
0.0418777
0.0418482
0.0420553
0.0557544
0.0420298
0.0421379
0.0423133
0.0425998
0.042181
0.0403121
0.0356435
0.0160531
0.00570092
0.0018143
0.000511226
0.000225749
7.55054e-05
4.23487e-05
3.76871e-05
3.21342e-05
1.65126e-05
7.70436e-06
3.03361e-07
0
0
0
0
0
0
0
0
0
0
0
0
0
0
0
0
0
0
0
0
0
0
0
0
0
0
0
0
0
0
0
0
0
0
0
0
0
0
0
0
0
0
0
0.00377836
0.0463378
0.0470451
0.032858
0.018521
0.0295843
0.0168213
0.0245533
0.0328522
0.0264396
0.0396054
0.0259052
0.0321135
0.0216318
0.0300192
0.0169839
0.0157401
0.0168257
0.0210423
0.0361315
0.0444338
0.0387311
0.0290066
0.0297898
0.0307168
0.0485129
0.0326593
0.0348457
0.0377034
0.0552388
0.0553852
0.0557539
0.0557614
0.0557135
0.0556407
0.0556005
0.0411887
0.0412194
0.0557829
0.0416889
0.0558445
0.0424823
0.0558841
0.055321
0.0343314
0.0199078
0.00472578
0.00151778
0.000456073
0.000208883
6.82144e-05
4.20826e-05
4.02299e-05
3.96644e-05
2.96886e-05
4.07192e-06
2.44454e-07
0
0
0
0
0
0
0
0
0
0
0
0
0
0
0
0
0
0
0
0
0
0
0
0
0
0
0
0
0
0
0
0
0
0
0
0
0
0
0
0
0
0
0
0.0274455
0.0283942
0.0329057
0.0528513
0.0353243
0.0392025
0.0233741
0.0269789
0.0415156
0.037378
0.0438544
0.0520593
0.0363277
0.0313591
0.0261513
0.0209366
0.0185762
0.0187846
0.0234411
0.0369572
0.0289331
0.0290217
0.0309387
0.0333468
0.049574
0.035748
0.0364447
0.0376772
0.0390246
0.0403518
0.0553661
0.0418003
0.0412988
0.0408134
0.0404809
0.0554079
0.0553785
0.0401849
0.0556542
0.0557726
0.041643
0.0558166
0.055856
0.0391092
0.0324376
0.00999152
0.00384008
0.00123138
0.000391818
0.000202253
6.12324e-05
3.66806e-05
3.51011e-05
4.01629e-05
5.94312e-05
7.45407e-06
2.42087e-07
0
0
0
0
0
0
0
0
0
0
0
0
0
0
0
0
0
0
0
0
0
0
0
0
0
0
0
0
0
0
0
0
0
0
0
0
0
0
0
0
0
0
0
0.0133131
0.0238172
0.0300741
0.0374183
0.0404285
0.0351781
0.0293106
0.0302261
0.0356887
0.0547099
0.0445497
0.0558616
0.0544051
0.0382857
0.0326636
0.0274323
0.0236956
0.0224531
0.0271001
0.0279298
0.0283549
0.0298136
0.0322207
0.0488331
0.0461869
0.0374156
0.0493063
0.0518448
0.0528706
0.0538149
0.0397431
0.0406714
0.0403292
0.0403611
0.0548149
0.0546244
0.0546234
0.039418
0.0405581
0.055725
0.0558007
0.041708
0.0558045
0.0387616
0.0432557
0.0113343
0.00203276
0.000994856
0.000355201
0.000187476
4.24031e-05
1.9582e-05
1.50932e-05
1.6763e-05
1.4078e-05
1.57021e-06
0
0
0
0
0
0
0
0
0
0
0
0
0
0
0
0
0
0
0
0
0
0
0
0
0
0
0
0
0
0
0
0
0
0
0
0
0
0
0
0
0
0
0
0
0.0239647
0.0278109
0.0255343
0.0315754
0.0378566
0.0493001
0.0299623
0.0299068
0.0353511
0.0386911
0.042066
0.0559064
0.0556654
0.0546733
0.0350057
0.0307482
0.0384099
0.0262848
0.0386777
0.0282352
0.0287516
0.0436688
0.0318416
0.0339297
0.0359035
0.0366046
0.0368519
0.0370392
0.0374342
0.038087
0.038928
0.0549206
0.0547703
0.0384475
0.0540112
0.0369361
0.0370417
0.0377928
0.0390637
0.0406882
0.0557691
0.0558188
0.0403815
0.0371016
0.038295
0.00836117
0.00253025
0.000826233
0.000320481
8.99796e-05
1.8688e-05
9.29391e-06
6.63539e-06
5.42108e-06
2.87418e-06
2.78551e-07
0
0
0
0
0
0
0
0
0
0
0
0
0
0
0
0
0
0
0
0
0
0
0
0
0
0
0
0
0
0
0
0
0
0
0
0
0
0
0
0
0
0
0
0
0.0273701
0.028358
0.0266293
0.0248286
0.0291192
0.0281164
0.0250418
0.0257197
0.0302403
0.0328596
0.0338765
0.0335061
0.0488069
0.0433971
0.0291298
0.0282998
0.0279436
0.0283982
0.0295082
0.0293952
0.03006
0.0307697
0.0312773
0.0325602
0.0340717
0.0456674
0.0356006
0.04697
0.0360308
0.0367268
0.0519798
0.0525858
0.0371504
0.0532133
0.0513419
0.0354803
0.0360647
0.0380653
0.0537735
0.0393038
0.0553798
0.0405281
0.038677
0.05285
0.0327818
0.0054457
0.00207104
0.000664999
0.000249658
6.04936e-05
1.17459e-05
5.37419e-06
2.7924e-06
1.47757e-06
4.99658e-07
0
0
0
0
0
0
0
0
0
0
0
0
0
0
0
0
0
0
0
0
0
0
0
0
0
0
0
0
0
0
0
0
0
0
0
0
0
0
0
0
0
0
0
0
0
0.0281053
0.0275826
0.0311684
0.0293302
0.0241902
0.0222619
0.0213656
0.0222668
0.0248922
0.0255575
0.0249617
0.0234683
0.0213788
0.0202781
0.0240621
0.0240047
0.0271376
0.0293795
0.0300231
0.0469574
0.0305469
0.0474338
0.0304876
0.0311579
0.0323572
0.033552
0.0340128
0.0340445
0.0345637
0.0476063
0.0490353
0.035035
0.0498984
0.0498297
0.0340178
0.0341308
0.0480341
0.0371134
0.0506659
0.0384241
0.0395255
0.0551813
0.0374737
0.0337
0.0269006
0.00435329
0.00171781
0.000524298
0.000194202
5.55813e-05
1.53585e-05
5.53077e-06
1.73042e-06
5.84728e-07
2.63183e-07
0
0
0
0
0
0
0
0
0
0
0
0
0
0
0
0
0
0
0
0
0
0
0
0
0
0
0
0
0
0
0
0
0
0
0
0
0
0
0
0
0
0
0
0
0
0.0282627
0.0272471
0.0285358
0.0307982
0.0307758
0.0271809
0.0254704
0.024211
0.0230068
0.021523
0.0191953
0.0167076
0.0147198
0.0140019
0.0151763
0.0176797
0.0229609
0.0388359
0.0282469
0.0307736
0.0475633
0.0299595
0.0303315
0.0308436
0.0313817
0.0320399
0.0512707
0.0326886
0.0331524
0.0477225
0.0332218
0.0328424
0.0325286
0.0323499
0.0323133
0.0328948
0.0346362
0.0369225
0.0474568
0.0512297
0.0385809
0.0384531
0.0361758
0.0489203
0.0211133
0.00355286
0.00141632
0.000454175
0.00020844
6.91939e-05
3.41486e-05
1.16055e-05
2.75792e-06
7.24416e-07
2.43668e-07
0
0
0
0
0
0
0
0
0
0
0
0
0
0
0
0
0
0
0
0
0
0
0
0
0
0
0
0
0
0
0
0
0
0
0
0
0
0
0
0
0
0
0
0
0
0.0282718
0.027655
0.0272583
0.0278793
0.0299949
0.0310185
0.0303018
0.0286369
0.0258282
0.0224488
0.0187065
0.0152611
0.0124939
0.0108745
0.0109894
0.0131003
0.0173996
0.0215529
0.0249564
0.0422951
0.0433001
0.0286731
0.0298668
0.0512385
0.0509182
0.0313235
0.0315194
0.0313694
0.0315447
0.0501475
0.0496049
0.0307664
0.0302964
0.0301796
0.0472049
0.0316326
0.034562
0.0444988
0.0461053
0.0382793
0.0388961
0.0376838
0.0345678
0.0279206
0.009315
0.00299703
0.00114171
0.000399789
0.000199721
0.000100726
4.79662e-05
4.09118e-05
5.77284e-06
1.4966e-06
6.95607e-07
2.75839e-07
0
0
0
0
0
0
0
0
0
0
0
0
0
0
0
0
0
0
0
0
0
0
0
0
0
0
0
0
0
0
0
0
0
0
0
0
0
0
0
0
0
0
0
0
0.0282099
0.0277522
0.0270844
0.026365
0.0264869
0.0273784
0.0269785
0.0253551
0.0226266
0.0190396
0.015967
0.0132733
0.0108564
0.00900927
0.0084588
0.00967577
0.0126328
0.0194136
0.0214963
0.0244748
0.0264076
0.0277688
0.0292034
0.0303619
0.0305913
0.03081
0.0503368
0.029963
0.0295275
0.0290671
0.0285383
0.0491833
0.0488484
0.0284321
0.029242
0.0308819
0.0335886
0.0366378
0.0376484
0.0377496
0.0377413
0.0367269
0.0326344
0.0239794
0.00699172
0.00249923
0.000921084
0.000362308
0.000181689
7.04921e-05
5.00513e-05
4.95056e-05
8.95382e-06
2.24221e-06
1.76879e-06
1.32523e-06
0
0
0
0
0
0
0
0
0
0
0
0
0
0
0
0
0
0
0
0
0
0
0
0
0
0
0
0
0
0
0
0
0
0
0
0
0
0
0
0
0
0
0
0
0.0280687
0.0274672
0.0266028
0.0252466
0.0236702
0.0221108
0.0199047
0.0172479
0.0150134
0.0129919
0.0115319
0.0103237
0.00895718
0.00754569
0.00675836
0.00738352
0.00964662
0.0132411
0.0195455
0.0220158
0.0391646
0.0273369
0.0288474
0.0296094
0.0299456
0.0300371
0.0294084
0.0282573
0.0273688
0.0266271
0.026216
0.0461032
0.0264773
0.0268007
0.028002
0.0305122
0.0393516
0.0345656
0.037484
0.0372184
0.0369731
0.0504573
0.0301107
0.0194636
0.00544802
0.00208682
0.000760898
0.000314517
0.000122146
5.81441e-05
4.70815e-05
2.22425e-05
4.28092e-06
2.19941e-06
2.77603e-06
5.15185e-06
3.96064e-07
0
0
0
0
0
0
0
0
0
0
0
0
0
0
0
0
0
0
0
0
0
0
0
0
0
0
0
0
0
0
0
0
0
0
0
0
0
0
0
0
0
0
0
0.0277886
0.0267791
0.0255042
0.0235767
0.0207195
0.0170413
0.0130921
0.0104492
0.00903738
0.00827107
0.00792224
0.00770246
0.00720246
0.00636642
0.00565258
0.00585362
0.00749841
0.0104783
0.0161527
0.0195222
0.0228583
0.0260621
0.0285019
0.0288128
0.0288264
0.0466505
0.0461185
0.0262617
0.025093
0.0242789
0.0240263
0.0242798
0.0246793
0.0255096
0.0273123
0.0302677
0.0322082
0.033792
0.0352611
0.0366231
0.0360167
0.0341851
0.0271524
0.0252488
0.00443258
0.00175922
0.00062283
0.000261066
9.02397e-05
5.36881e-05
2.88419e-05
7.93211e-06
2.17585e-06
1.58123e-06
1.89309e-06
1.51017e-06
2.64261e-07
0
0
0
0
0
0
0
0
0
0
0
0
0
0
0
0
0
0
0
0
0
0
0
0
0
0
0
0
0
0
0
0
0
0
0
0
0
0
0
0
0
0
0
0.0272385
0.0253352
0.023421
0.0208647
0.0169542
0.0121578
0.00823785
0.00631182
0.00555352
0.00533633
0.0055043
0.00575385
0.0057788
0.0054544
0.00496856
0.00491404
0.0059797
0.0084216
0.0120658
0.0175258
0.0200482
0.0235
0.040869
0.0269199
0.0268842
0.0259973
0.0250272
0.0240092
0.0227701
0.0219968
0.0219446
0.0223442
0.0231155
0.0373129
0.0339378
0.0296178
0.0309487
0.0328547
0.0346722
0.0358448
0.0348375
0.0324707
0.0237017
0.0114173
0.00367409
0.00150616
0.000527448
0.000211849
7.44791e-05
4.97616e-05
2.70149e-05
4.13737e-06
1.02148e-06
7.87521e-07
7.62911e-07
3.49015e-07
0
0
0
0
0
0
0
0
0
0
0
0
0
0
0
0
0
0
0
0
0
0
0
0
0
0
0
0
0
0
0
0
0
0
0
0
0
0
0
0
0
0
0
0
0.0261258
0.0225564
0.0195803
0.0165243
0.0124244
0.00798077
0.00516822
0.00402475
0.00360877
0.00364905
0.00399863
0.00441486
0.00469533
0.0047427
0.00454908
0.00441102
0.00497581
0.00679005
0.0097317
0.0146388
0.0177407
0.0203762
0.0229971
0.0241982
0.0389426
0.0231843
0.0221138
0.0371023
0.0204562
0.0197773
0.0199672
0.0205824
0.0217005
0.0234922
0.0264311
0.0284262
0.0293788
0.0318851
0.0339821
0.0342527
0.0333852
0.0303274
0.0197258
0.0139796
0.0031244
0.00126737
0.000466579
0.000168301
6.34865e-05
3.90031e-05
1.06292e-05
2.09553e-06
5.27525e-07
3.66442e-07
2.43672e-07
0
0
0
0
0
0
0
0
0
0
0
0
0
0
0
0
0
0
0
0
0
0
0
0
0
0
0
0
0
0
0
0
0
0
0
0
0
0
0
0
0
0
0
0
0
0.0238016
0.0175155
0.0138514
0.0110281
0.00781597
0.0048863
0.00338275
0.00271192
0.00251389
0.00267263
0.00305987
0.00351077
0.00389859
0.00417214
0.00424288
0.00416972
0.00440124
0.00558628
0.00795585
0.0112264
0.0201732
0.0174598
0.0194046
0.0208907
0.0348224
0.0202377
0.0192434
0.0189763
0.01805
0.0176465
0.0181447
0.0189501
0.0203782
0.02257
0.0252608
0.0265656
0.02783
0.0309479
0.0331864
0.0330435
0.0503636
0.0276552
0.0156565
0.00688561
0.00262815
0.00103353
0.000404847
0.000130586
5.30116e-05
3.51446e-05
7.80846e-06
1.44627e-06
2.44387e-07
2.64058e-07
0
0
0
0
0
0
0
0
0
0
0
0
0
0
0
0
0
0
0
0
0
0
0
0
0
0
0
0
0
0
0
0
0
0
0
0
0
0
0
0
0
0
0
0
0
0
0.0192237
0.0105994
0.00745008
0.00582763
0.00427122
0.00305771
0.00230527
0.00191123
0.00184307
0.00205494
0.00245439
0.00289145
0.00330303
0.00368996
0.00395923
0.00403069
0.00411913
0.00478459
0.00648439
0.00897854
0.0128631
0.0156593
0.016267
0.0174486
0.0178701
0.0174018
0.0293844
0.0162697
0.015764
0.0156485
0.0165068
0.0174638
0.0193654
0.0214254
0.0231884
0.0243741
0.0265483
0.0302459
0.0321439
0.0315153
0.0295971
0.0245665
0.0120257
0.0053199
0.00218992
0.000843849
0.000339523
9.91893e-05
4.54284e-05
2.42372e-05
8.89532e-06
1.85051e-06
2.42368e-07
0
0
0
0
0
0
0
0
0
0
0
0
0
0
0
0
0
0
0
0
0
0
0
0
0
0
0
0
0
0
0
0
0
0
0
0
0
0
0
0
0
0
0
0
0
0
0
0.0104575
0.00456702
0.00341955
0.00299949
0.00253553
0.00200297
0.00159513
0.00139472
0.00142165
0.00168162
0.00204302
0.00244183
0.00284386
0.00327397
0.00366479
0.00388912
0.00397579
0.00431257
0.00539544
0.00724305
0.0094569
0.013165
0.0142576
0.0144733
0.0150204
0.0255832
0.0241661
0.0138481
0.0136162
0.0137999
0.0231713
0.0162338
0.0187664
0.01987
0.0207857
0.0226587
0.0256396
0.0297586
0.0306681
0.0295737
0.0270359
0.0206001
0.00896241
0.00562767
0.00183625
0.000683352
0.000287629
8.1637e-05
3.45761e-05
1.67562e-05
1.37924e-05
3.16551e-06
3.19433e-07
0
0
0
0
0
0
0
0
0
0
0
0
0
0
0
0
0
0
0
0
0
0
0
0
0
0
0
0
0
0
0
0
0
0
0
0
0
0
0
0
0
0
0
0
0
0
0
0.000647238
0.000967948
0.00115982
0.00123663
0.00118176
0.00105049
0.000942005
0.000930044
0.00105414
0.00130795
0.00160901
0.00196802
0.00237553
0.00281302
0.00326968
0.00364112
0.00384307
0.00398231
0.00437809
0.0052422
0.00646432
0.00801837
0.0104993
0.0115192
0.0111773
0.0109546
0.0106854
0.010556
0.0105947
0.0110356
0.0123567
0.0145597
0.0148388
0.0155675
0.01737
0.0200695
0.0242258
0.0288248
0.0279188
0.0263159
0.0226553
0.0140024
0.0104811
0.00305772
0.00128301
0.000455453
0.000153636
4.80582e-05
1.23086e-05
7.62179e-06
8.35106e-06
3.50793e-06
2.58281e-07
0
0
0
0
0
0
0
0
0
0
0
0
0
0
0
0
0
0
0
0
0
0
0
0
0
0
0
0
0
0
0
0
0
0
0
0
0
0
0
0
0
0
0
0
0
0
0
6.9937e-05
0.000184601
0.000305191
0.000397217
0.000450217
0.000477944
0.000511699
0.000591355
0.000750322
0.000977903
0.00122633
0.0014827
0.00183488
0.00224393
0.00266439
0.003062
0.00335228
0.00350987
0.00363633
0.00389355
0.00435448
0.00500471
0.00598918
0.00723599
0.00818586
0.00855022
0.0086012
0.00835696
0.00792216
0.00778024
0.00865059
0.0102581
0.0105418
0.0119344
0.0142335
0.017923
0.0230812
0.0260887
0.0238173
0.0213298
0.0159135
0.0144021
0.00569475
0.00211224
0.000794679
0.000287831
8.40138e-05
2.11912e-05
5.17111e-06
2.37802e-06
1.3459e-06
2.42016e-07
0
0
0
0
0
0
0
0
0
0
0
0
0
0
0
0
0
0
0
0
0
0
0
0
0
0
0
0
0
0
0
0
0
0
0
0
0
0
0
0
0
0
0
0
0
0
0
0
9.49752e-06
3.94537e-05
8.30342e-05
0.000133322
0.000183426
0.000234446
0.000299281
0.000397993
0.000548899
0.000743466
0.000954531
0.00117204
0.00142453
0.00178649
0.00215386
0.00249148
0.00276
0.00292072
0.00299707
0.00306363
0.00318258
0.00341531
0.00381886
0.00442043
0.00512447
0.0058633
0.00644599
0.00627288
0.00587727
0.00543594
0.00574179
0.0065519
0.00821504
0.00961106
0.0121185
0.0164009
0.0224869
0.0213995
0.0189845
0.0151251
0.00935238
0.00489526
0.00310414
0.00136146
0.000481187
0.000168883
5.17373e-05
1.08733e-05
2.63838e-06
6.0373e-07
2.58486e-07
0
0
0
0
0
0
0
0
0
0
0
0
0
0
0
0
0
0
0
0
0
0
0
0
0
0
0
0
0
0
0
0
0
0
0
0
0
0
0
0
0
0
0
0
0
0
0
0
0
1.8727e-06
9.20399e-06
2.40265e-05
4.74077e-05
8.20486e-05
0.000129043
0.000193405
0.000285521
0.000413695
0.000574225
0.000754142
0.000946462
0.00116432
0.00143971
0.001778
0.00206797
0.00229049
0.00242777
0.00248524
0.00250279
0.00252993
0.00262163
0.00280805
0.00311525
0.00354844
0.00412629
0.00450596
0.0046254
0.00480387
0.00463578
0.00478606
0.00475631
0.00670968
0.00814454
0.0109314
0.0156897
0.0191649
0.0166227
0.0135193
0.00887111
0.00505064
0.00365386
0.00203784
0.000818732
0.000311803
0.00010086
3.1414e-05
8.59418e-06
2.42911e-06
4.21524e-07
0
0
0
0
0
0
0
0
0
0
0
0
0
0
0
0
0
0
0
0
0
0
0
0
0
0
0
0
0
0
0
0
0
0
0
0
0
0
0
0
0
0
0
0
0
0
0
0
0
0
4.17309e-07
2.41504e-06
7.71479e-06
2.08829e-05
4.48e-05
8.23117e-05
0.000138574
0.000216069
0.000319643
0.000449868
0.000602378
0.000775222
0.000977953
0.00122722
0.00151274
0.00178756
0.00199129
0.00211581
0.00217903
0.00220403
0.00222046
0.00226351
0.00236365
0.00255719
0.00286516
0.00328304
0.00363484
0.00404556
0.00428032
0.00406982
0.00401931
0.00388514
0.00596503
0.00746451
0.0105955
0.0159167
0.0139453
0.0117074
0.00844166
0.00475409
0.0035985
0.00266047
0.00128316
0.000463592
0.000161533
5.54004e-05
1.26074e-05
6.70996e-06
3.34923e-06
2.98343e-07
0
0
0
0
0
0
0
0
0
0
0
0
0
0
0
0
0
0
0
0
0
0
0
0
0
0
0
0
0
0
0
0
0
0
0
0
0
0
0
0
0
0
0
0
0
0
0
0
0
0
0
3.02311e-07
3.82446e-06
1.17518e-05
2.883e-05
5.79164e-05
0.000100373
0.000160339
0.000240145
0.000346894
0.000480222
0.000705408
0.000988573
0.00132238
0.00162838
0.00189703
0.00207298
0.0021598
0.00217788
0.00215405
0.00212097
0.00211292
0.00216111
0.00229878
0.00255603
0.00292663
0.00325726
0.00370566
0.00388191
0.00357276
0.00344215
0.00401052
0.00621316
0.00819871
0.0111089
0.011565
0.00955746
0.00705622
0.00517767
0.00325513
0.00282837
0.00162236
0.000691001
0.000268743
8.2619e-05
2.09335e-05
6.45024e-06
2.8557e-06
6.36786e-07
0
0
0
0
0
0
0
0
0
0
0
0
0
0
0
0
0
0
0
0
0
0
0
0
0
0
0
0
0
0
0
0
0
0
0
0
0
0
0
0
0
0
0
0
0
0
0
0
0
0
0
0
1.56403e-07
1.86299e-06
6.2852e-06
1.59586e-05
3.17665e-05
5.57703e-05
9.23248e-05
0.000150838
0.000249421
0.00046059
0.000753763
0.00107948
0.00147807
0.00184499
0.0021175
0.00228446
0.00233644
0.00229857
0.00221111
0.00211677
0.00205542
0.00206325
0.00217253
0.00242418
0.00279931
0.00311843
0.00349552
0.00352838
0.00310315
0.00326806
0.00495329
0.00619534
0.0070433
0.00808432
0.00792504
0.00589656
0.00389468
0.00342186
0.00238143
0.00171926
0.000908835
0.000370818
0.000129377
4.72724e-05
8.94922e-06
2.90288e-06
7.27175e-07
2.63902e-07
0
0
0
0
0
0
0
0
0
0
0
0
0
0
0
0
0
0
0
0
0
0
0
0
0
0
0
0
0
0
0
0
0
0
0
0
0
0
0
0
0
0
0
0
0
0
0
0
0
0
0
0
0
5.13703e-07
1.47757e-06
3.7668e-06
7.60995e-06
1.38615e-05
2.63873e-05
6.02634e-05
0.000173314
0.000416489
0.000743556
0.00109799
0.00154007
0.0020179
0.00233767
0.00252186
0.00255605
0.00246507
0.00230896
0.00215048
0.0020406
0.00201927
0.00212273
0.00239795
0.00280534
0.00307936
0.00328803
0.00319417
0.00335682
0.00360531
0.00404999
0.00431049
0.00486221
0.00553109
0.0051355
0.00356217
0.002498
0.00253106
0.00155012
0.000964841
0.000445933
0.000190031
7.2314e-05
2.91008e-05
6.99737e-06
2.64521e-06
3.56897e-07
0
0
0
0
0
0
0
0
0
0
0
0
0
0
0
0
0
0
0
0
0
0
0
0
0
0
0
0
0
0
0
0
0
0
0
0
0
0
0
0
0
0
0
0
0
0
0
0
0
0
0
0
0
0
0
5.88206e-07
1.64952e-06
3.55025e-06
7.77432e-06
1.24998e-05
2.37605e-05
9.47816e-05
0.000323105
0.000651737
0.00101596
0.00148219
0.00204689
0.00245573
0.00270184
0.00274712
0.00261927
0.00240207
0.00218522
0.00203361
0.00198973
0.00208967
0.00238661
0.00285386
0.00317565
0.00331632
0.00341699
0.00337752
0.00323315
0.00311841
0.00309593
0.00334706
0.0036821
0.00330232
0.00241407
0.00187012
0.00170614
0.000930294
0.000460237
0.000231907
8.7325e-05
4.00517e-05
9.4447e-06
3.40568e-06
7.39938e-07
0
0
0
0
0
0
0
0
0
0
0
0
0
0
0
0
0
0
0
0
0
0
0
0
0
0
0
0
0
0
0
0
0
0
0
0
0
0
0
0
0
0
0
0
0
0
0
0
0
0
0
0
0
0
0
0
1.79031e-07
5.2648e-07
1.48681e-06
3.48189e-06
7.09963e-06
1.56e-05
5.10875e-05
0.000221626
0.000527194
0.00088642
0.00136726
0.00197308
0.00246275
0.00278438
0.00286743
0.00272824
0.00246899
0.00220726
0.00202287
0.00195818
0.00204313
0.00232932
0.0028473
0.00341989
0.00368395
0.00326146
0.00274289
0.00248581
0.00232135
0.0022431
0.00241995
0.00253521
0.00245066
0.00189888
0.00135838
0.00104044
0.000497611
0.000245601
0.000102491
4.38832e-05
1.15482e-05
4.43333e-06
1.1311e-06
2.38776e-07
0
0
0
0
0
0
0
0
0
0
0
0
0
0
0
0
0
0
0
0
0
0
0
0
0
0
0
0
0
0
0
0
0
0
0
0
0
0
0
0
0
0
0
0
0
0
0
0
0
0
0
0
0
0
0
0
0
1.67645e-07
4.86846e-07
1.33051e-06
3.35762e-06
9.50681e-06
3.11004e-05
0.00013399
0.000396253
0.000731435
0.00120991
0.00182252
0.00236821
0.00275856
0.00289742
0.00277655
0.00250247
0.00221448
0.00200615
0.0019159
0.00196454
0.00218238
0.00257985
0.00294134
0.00275264
0.00233627
0.00206902
0.00193762
0.00193395
0.00190837
0.00217753
0.00199021
0.00199329
0.00145128
0.000917391
0.000568457
0.000278317
0.000112607
5.13051e-05
1.22662e-05
4.92304e-06
1.29618e-06
2.72017e-07
0
0
0
0
0
0
0
0
0
0
0
0
0
0
0
0
0
0
0
0
0
0
0
0
0
0
0
0
0
0
0
0
0
0
0
0
0
0
0
0
0
0
0
0
0
0
0
0
0
0
0
0
0
0
0
0
0
0
0
1.81887e-07
4.75836e-07
1.34034e-06
4.85674e-06
2.04404e-05
7.18279e-05
0.000269634
0.000587201
0.00102239
0.00161181
0.00218722
0.00262928
0.00283282
0.00275949
0.00250179
0.00220954
0.00198616
0.0018694
0.00186458
0.0019599
0.00211143
0.00215487
0.00199797
0.00179558
0.00167724
0.00171333
0.00198664
0.00180706
0.0017566
0.00163192
0.00146654
0.00097474
0.00052688
0.000294245
0.000130686
6.35535e-05
2.01704e-05
5.30861e-06
1.59264e-06
3.41731e-07
0
0
0
0
0
0
0
0
0
0
0
0
0
0
0
0
0
0
0
0
0
0
0
0
0
0
0
0
0
0
0
0
0
0
0
0
0
0
0
0
0
0
0
0
0
0
0
0
0
0
0
0
0
0
0
0
0
0
0
0
0
0
5.4426e-07
1.89845e-06
1.05143e-05
4.29926e-05
0.000154179
0.000428545
0.0007956
0.00134197
0.00192925
0.00240274
0.00267175
0.00267112
0.00246372
0.00219317
0.0019712
0.00183398
0.00177025
0.00174332
0.00175262
0.00173233
0.00162512
0.00152439
0.00153137
0.00165322
0.00183971
0.00163007
0.00130469
0.00124718
0.000962722
0.000548602
0.000270746
0.000133914
6.6343e-05
2.49125e-05
7.25251e-06
2.78317e-06
5.07141e-07
0
0
0
0
0
0
0
0
0
0
0
0
0
0
0
0
0
0
0
0
0
0
0
0
0
0
0
0
0
0
0
0
0
0
0
0
0
0
0
0
0
0
0
0
0
0
0
0
0
0
0
0
0
0
0
0
0
0
0
0
0
0
0
2.14092e-07
6.13056e-07
4.23256e-06
2.17491e-05
7.41268e-05
0.00026441
0.000577853
0.00103903
0.00159595
0.00208506
0.00241035
0.00249761
0.00237232
0.00215503
0.00196059
0.00182629
0.00175277
0.00160127
0.00153651
0.00157781
0.00147055
0.001421
0.0014617
0.00153308
0.00148417
0.00135645
0.00085127
0.000742717
0.000494828
0.000261994
0.000127961
6.52911e-05
2.4989e-05
6.03026e-06
2.46567e-06
6.21216e-07
2.60751e-07
0
0
0
0
0
0
0
0
0
0
0
0
0
0
0
0
0
0
0
0
0
0
0
0
0
0
0
0
0
0
0
0
0
0
0
0
0
0
0
0
0
0
0
0
0
0
0
0
0
0
0
0
0
0
0
0
0
0
0
0
0
0
0
0
1.67707e-07
1.06761e-06
9.24188e-06
3.9837e-05
0.000121479
0.000369596
0.00070438
0.00118846
0.00168579
0.00205332
0.00222279
0.0021971
0.00206348
0.00192767
0.00184639
0.00193492
0.00155961
0.00142303
0.0014422
0.00138623
0.00130716
0.00125023
0.00117757
0.000957012
0.000815676
0.000434607
0.000321422
0.000214107
0.000114249
6.07811e-05
2.19288e-05
5.58808e-06
1.86161e-06
5.69719e-07
2.4112e-07
0
0
0
0
0
0
0
0
0
0
0
0
0
0