/*--------------------------------*- C++ -*----------------------------------*\
  =========                 |
  \\      /  F ield         | OpenFOAM: The Open Source CFD Toolbox
   \\    /   O peration     | Website:  https://openfoam.org
    \\  /    A nd           | Version:  6
     \\/     M anipulation  |
\*---------------------------------------------------------------------------*/
FoamFile
{
    version     2.0;
    format      ascii;
    class       volScalarField;
    location    "0.005";
    object      CO2;
}
// * * * * * * * * * * * * * * * * * * * * * * * * * * * * * * * * * * * * * //

dimensions      [0 0 0 0 0 0 0];

internalField   nonuniform List<scalar> 
8000
(
1.82078e-06
1.82714e-06
1.83265e-06
1.84373e-06
1.89097e-06
2.3271e-06
5.71709e-06
1.56641e-05
2.65688e-05
3.64023e-05
4.59163e-05
5.50373e-05
6.4182e-05
7.0897e-05
7.16407e-05
7.12347e-05
7.83915e-05
9.90023e-05
0.000141434
0.000296846
0.00115014
0.00729694
0.0357123
0.039898
0.0685003
0.100421
0.114025
0.121752
0.128294
0.134271
0.139753
0.143525
0.145529
0.144384
0.143157
0.141491
0.139581
0.137332
0.135852
0.1348
0.133565
0.134027
0.136953
0.141096
0.145345
0.129325
0.08104
0.0562178
0.0331907
0.0113949
0.00263765
0.000652839
4.38302e-05
2.82417e-06
0
0
0
0
0
0
0
0
0
0
0
0
0
0
0
0
0
0
0
0
0
0
0
0
0
0
0
0
0
0
0
0
0
0
0
0
0
0
0
0
0
0
0
0
0
0
1.83934e-06
1.8739e-06
1.8732e-06
1.88487e-06
1.96427e-06
2.84543e-06
9.70782e-06
2.51762e-05
4.12692e-05
5.71827e-05
7.09794e-05
8.14707e-05
9.1524e-05
0.000102581
0.000101011
9.28179e-05
9.62594e-05
0.000118237
0.00016326
0.000325382
0.00127246
0.0118697
0.129817
0.0671816
0.0733113
0.101373
0.117558
0.12461
0.128674
0.134513
0.139889
0.143627
0.14554
0.144251
0.142888
0.140506
0.139401
0.136502
0.135763
0.133478
0.132665
0.133957
0.136892
0.141028
0.145232
0.130926
0.0791354
0.0507179
0.0260128
0.00732396
0.0018764
0.000870313
4.98873e-05
3.01487e-06
0
0
0
0
0
0
0
0
0
0
0
0
0
0
0
0
0
0
0
0
0
0
0
0
0
0
0
0
0
0
0
0
0
0
0
0
0
0
0
0
0
0
0
0
0
0
1.92449e-06
8.84763e-05
1.96912e-06
0.000204917
2.23837e-06
4.89371e-06
1.84142e-05
4.2395e-05
0.00104756
0.000108851
0.000135353
0.000150734
0.000158914
0.00018954
0.00259902
0.00202405
0.000135535
0.000176798
0.00024036
0.000398267
0.00107166
0.00539018
0.0422256
0.0344626
0.0551253
0.0996543
0.117308
0.126989
0.130143
0.13504
0.140075
0.143771
0.145472
0.143917
0.14229
0.140009
0.13833
0.136251
0.134844
0.133309
0.132507
0.132994
0.13608
0.14026
0.145638
0.133032
0.0627197
0.0416018
0.00946033
0.00570124
0.00171179
0.000512441
2.9683e-05
2.02708e-06
0
0
0
0
0
0
0
0
0
0
0
0
0
0
0
0
0
0
0
0
0
0
0
0
0
0
0
0
0
0
0
0
0
0
0
0
0
0
0
0
0
0
0
0
0
0
1.84343e-06
1.91246e-06
2.06265e-06
3.00509e-06
6.32769e-06
1.22353e-05
2.75465e-05
5.6554e-05
0.000110058
0.00254697
0.000431315
0.000469232
0.000443582
0.00312524
0.00016852
0.00015339
0.000189025
0.000394531
0.00426783
0.000653687
0.00126757
0.00898644
0.0155549
0.0222053
0.0423225
0.0800068
0.108881
0.123899
0.131776
0.112543
0.140555
0.143771
0.145167
0.143365
0.141411
0.139163
0.137125
0.135737
0.134634
0.132232
0.132312
0.132787
0.135884
0.140069
0.145403
0.132349
0.0687033
0.0311961
0.0126778
0.00398254
0.00139601
0.000239796
1.81096e-05
1.43026e-06
0
0
0
0
0
0
0
0
0
0
0
0
0
0
0
0
0
0
0
0
0
0
0
0
0
0
0
0
0
0
0
0
0
0
0
0
0
0
0
0
0
0
0
0
0
0
1.84305e-06
1.95933e-06
0.000367232
1.06315e-05
0.000643428
2.75378e-05
3.74552e-05
0.000653787
0.000129317
0.00329683
0.0152197
0.0126053
0.00774741
0.000354153
0.000205362
0.00268268
0.000331234
0.00521081
0.00110684
0.00133631
0.00727746
0.00937634
0.0101513
0.0254785
0.0407939
0.0700399
0.104432
0.128346
0.132339
0.135017
0.139502
0.143243
0.144539
0.143393
0.139762
0.116961
0.135653
0.134693
0.13226
0.131989
0.132113
0.132577
0.134499
0.13921
0.145125
0.132367
0.0644692
0.0245938
0.00867351
0.00268354
0.00104357
0.00016125
1.84018e-05
1.76995e-06
0
0
0
0
0
0
0
0
0
0
0
0
0
0
0
0
0
0
0
0
0
0
0
0
0
0
0
0
0
0
0
0
0
0
0
0
0
0
0
0
0
0
0
0
0
0
1.85476e-06
1.96504e-06
5.70406e-06
0.000405219
5.00005e-05
0.000562552
4.64526e-05
6.29181e-05
0.000101121
0.000194972
0.000448965
0.000466133
0.000317147
0.00021225
0.000204374
0.000306404
0.000714059
0.00750882
0.00365872
0.0107498
0.00409275
0.0115232
0.0106
0.0278197
0.0579916
0.0697554
0.0920891
0.108939
0.106951
0.127988
0.136686
0.142612
0.125822
0.142651
0.139533
0.136775
0.135433
0.133173
0.13211
0.131762
0.131945
0.132408
0.114527
0.138978
0.144785
0.133778
0.0644816
0.0215318
0.00648764
0.00203751
0.000992325
0.000310564
2.87574e-05
2.98768e-06
0
0
0
0
0
0
0
0
0
0
0
0
0
0
0
0
0
0
0
0
0
0
0
0
0
0
0
0
0
0
0
0
0
0
0
0
0
0
0
0
0
0
0
0
0
0
1.85601e-06
1.94081e-06
2.89854e-06
9.9809e-06
2.3198e-05
3.34244e-05
0.000657835
7.51139e-05
0.000102149
0.000130126
0.00191632
0.00234941
0.00218565
0.000203833
0.000285032
0.000563684
0.00119815
0.0035108
0.0235793
0.00831063
0.0170616
0.00847222
0.0196033
0.0316357
0.118313
0.0859221
0.0834436
0.0968896
0.109072
0.123594
0.135084
0.140973
0.142628
0.141842
0.139167
0.135868
0.134486
0.132192
0.1321
0.113917
0.131845
0.132294
0.133478
0.138865
0.144356
0.136116
0.0662715
0.0200201
0.00494953
0.00140391
0.000917733
0.000619638
4.92199e-05
4.69791e-06
0
0
0
0
0
0
0
0
0
0
0
0
0
0
0
0
0
0
0
0
0
0
0
0
0
0
0
0
0
0
0
0
0
0
0
0
0
0
0
0
0
0
0
0
0
0
0.000102914
0.00016131
3.05178e-06
1.23094e-05
2.43649e-05
0.000564261
7.31785e-05
0.000131615
0.00251409
0.00017553
0.000166659
0.000169849
0.000198174
0.000361126
0.00429287
0.00597792
0.0100556
0.017617
0.0300804
0.0349792
0.0146437
0.0151226
0.0263827
0.0331626
0.0684137
0.0721219
0.0702214
0.0855705
0.106494
0.12563
0.135787
0.141104
0.142213
0.140985
0.137926
0.135341
0.132966
0.132213
0.132252
0.131843
0.131853
0.132191
0.133531
0.138168
0.143816
0.138428
0.0673801
0.00945574
0.0036178
3.52035e-05
2.36892e-05
0.000376237
3.91392e-05
6.08408e-06
0
0
0
0
0
0
0
0
0
0
0
0
0
0
0
0
0
0
0
0
0
0
0
0
0
0
0
0
0
0
0
0
0
0
0
0
0
0
0
0
0
0
0
0
0
0
0.000106333
0.00023026
6.85534e-06
3.26259e-05
0.000462654
6.4436e-05
0.00100125
0.000261253
0.00597196
0.000383543
0.00308101
0.0028249
0.000353767
0.000597965
0.000979731
0.00722864
0.0116056
0.0234179
0.112384
0.0390727
0.0255716
0.037141
0.0260411
0.0510991
0.0707928
0.0572886
0.0662626
0.085832
0.114017
0.131938
0.131604
0.131529
0.141012
0.139298
0.135911
0.134297
0.131988
0.13237
0.132559
0.13219
0.11375
0.113811
0.133567
0.138178
0.121841
0.126142
0.0645461
0.0175819
0.00336263
0.000708201
0.000858578
0.000251769
3.9265e-05
1.01443e-05
2.19277e-06
0
0
0
0
0
0
0
0
0
0
0
0
0
0
0
0
0
0
0
0
0
0
0
0
0
0
0
0
0
0
0
0
0
0
0
0
0
0
0
0
0
0
0
0
0
1.97719e-06
0.000198599
0.000313183
0.000463611
5.73824e-05
0.00089318
0.000137898
0.000247843
0.000482722
0.00389755
0.000597877
0.000820631
0.00490642
0.00672124
0.0120552
0.00968489
0.00460158
0.0181438
0.0742899
0.0493577
0.0401514
0.0452569
0.0431549
0.0506702
0.055502
0.0601837
0.0728975
0.0927014
0.116681
0.11419
0.13908
0.14057
0.123758
0.138696
0.135297
0.114688
0.132031
0.132656
0.133003
0.132714
0.113848
0.132443
0.133692
0.138272
0.144358
0.135703
0.0415127
0.0154212
0.00278095
0.000603453
0.000783853
0.000257152
5.42946e-05
1.99511e-05
5.49257e-06
0
0
0
0
0
0
0
0
0
0
0
0
0
0
0
0
0
0
0
0
0
0
0
0
0
0
0
0
0
0
0
0
0
0
0
0
0
0
0
0
0
0
0
0
0
0.000120907
1.14545e-05
3.56578e-05
6.45817e-05
0.000103416
0.00176737
0.002646
0.00380703
0.0012587
0.00166018
0.00227542
0.00709453
0.00371729
0.00916182
0.00464734
0.00504637
0.00716107
0.0338055
0.0954072
0.113973
0.0578136
0.0870486
0.0649558
0.0977447
0.0860509
0.0740193
0.0878018
0.104202
0.122504
0.133447
0.138788
0.140036
0.138646
0.136718
0.134528
0.114669
0.132273
0.114418
0.133559
0.133365
0.13298
0.132758
0.133825
0.139058
0.14465
0.132474
0.0549922
0.0135052
0.00259056
2.63028e-05
0.000818877
0.000261329
8.32254e-05
4.02284e-05
1.39972e-05
2.26651e-06
0
0
0
0
0
0
0
0
0
0
0
0
0
0
0
0
0
0
0
0
0
0
0
0
0
0
0
0
0
0
0
0
0
0
0
0
0
0
0
0
0
0
0
0
2.78276e-06
5.99063e-05
0.000120041
0.00218393
0.000440289
0.00372766
0.00474197
0.00289642
0.00974105
0.0101607
0.011003
0.0115973
0.0140103
0.0190042
0.0114646
0.0115765
0.0144093
0.0388098
0.0925258
0.096257
0.0702895
0.0760298
0.0874606
0.0980541
0.089286
0.0900894
0.103915
0.108251
0.129222
0.12807
0.139163
0.138469
0.13735
0.116036
0.134894
0.132882
0.114444
0.133676
0.134217
0.134069
0.133645
0.133003
0.114507
0.13927
0.144941
0.120554
0.0279535
0.00472865
0.00243949
0.000795357
1.63065e-05
0.000315509
0.000138846
7.82085e-05
3.43848e-05
6.37417e-06
0
0
0
0
0
0
0
0
0
0
0
0
0
0
0
0
0
0
0
0
0
0
0
0
0
0
0
0
0
0
0
0
0
0
0
0
0
0
0
0
0
0
0
0
4.18348e-05
0.000420518
0.00145806
0.00581095
0.00850329
0.0112936
0.008658
0.0215527
0.0779959
0.0684038
0.0415292
0.0376372
0.0344328
0.0318384
0.0269641
0.0258208
0.0407206
0.0407398
0.0610198
0.100564
0.0920583
0.0947381
0.104535
0.117828
0.103222
0.105365
0.115348
0.114118
0.134367
0.138113
0.13864
0.137735
0.135447
0.135713
0.135549
0.133844
0.114684
0.114689
0.134933
0.134778
0.134278
0.114122
0.114587
0.139559
0.145216
0.109587
0.0404636
0.00407981
0.00227028
0.00102336
0.000734817
0.000326413
0.000235896
0.000149998
7.5686e-05
1.9527e-05
0
0
0
0
0
0
0
0
0
0
0
0
0
0
0
0
0
0
0
0
0
0
0
0
0
0
0
0
0
0
0
0
0
0
0
0
0
0
0
0
0
0
0
0
0.000266357
0.019045
0.02223
0.0244347
0.0311123
0.0737356
0.0429425
0.0387265
0.0648801
0.0649496
0.0668585
0.064171
0.0628913
0.0594729
0.0530317
0.0471042
0.049983
0.0873319
0.0758124
0.113495
0.121652
0.111943
0.114492
0.116288
0.11492
0.119499
0.114549
0.130724
0.136242
0.137589
0.13689
0.13575
0.115838
0.135479
0.136396
0.135781
0.1351
0.115004
0.135709
0.13546
0.134908
0.133863
0.135441
0.14058
0.144505
0.106264
0.0356229
0.00824639
0.00202982
0.00104987
0.000607604
0.000343191
0.00030677
0.000261471
0.000144915
6.64363e-05
3.32623e-06
0
0
0
0
0
0
0
0
0
0
0
0
0
0
0
0
0
0
0
0
0
0
0
0
0
0
0
0
0
0
0
0
0
0
0
0
0
0
0
0
0
0
0
0.0122485
0.135887
0.115442
0.104591
0.0855804
0.111246
0.0720454
0.0955117
0.114534
0.0979909
0.110875
0.100623
0.104243
0.0948727
0.107115
0.0781389
0.0695298
0.0705808
0.0861785
0.122182
0.121432
0.121613
0.121235
0.122609
0.124611
0.113679
0.130967
0.135952
0.137851
0.117703
0.11733
0.116139
0.115719
0.115782
0.115803
0.115667
0.138477
0.138729
0.115296
0.137022
0.114831
0.13433
0.115
0.118368
0.144251
0.0771231
0.0302809
0.00681375
0.00184395
0.00100755
0.000549544
0.000341103
0.000328139
0.000327154
0.000244705
3.48722e-05
2.28755e-06
0
0
0
0
0
0
0
0
0
0
0
0
0
0
0
0
0
0
0
0
0
0
0
0
0
0
0
0
0
0
0
0
0
0
0
0
0
0
0
0
0
0
0
0.052293
0.11552
0.119549
0.124048
0.120224
0.121372
0.103989
0.110277
0.123623
0.118334
0.113271
0.122393
0.124001
0.120463
0.11494
0.10391
0.0937984
0.0899578
0.102415
0.122236
0.122
0.125151
0.128109
0.129768
0.119889
0.134835
0.136371
0.138254
0.138483
0.137077
0.117662
0.136451
0.137161
0.138509
0.13938
0.116174
0.116277
0.140622
0.115904
0.115547
0.138254
0.114648
0.115484
0.142363
0.14203
0.0774419
0.0238615
0.00539074
0.0015766
0.000930961
0.00049326
0.000294606
0.000282979
0.000330772
0.000501782
6.43236e-05
2.63511e-06
0
0
0
0
0
0
0
0
0
0
0
0
0
0
0
0
0
0
0
0
0
0
0
0
0
0
0
0
0
0
0
0
0
0
0
0
0
0
0
0
0
0
0
0.12722
0.11033
0.128839
0.133063
0.130213
0.125419
0.124298
0.124762
0.123617
0.12002
0.118752
0.114711
0.120638
0.133212
0.131734
0.127842
0.119955
0.112945
0.119149
0.122559
0.127853
0.131905
0.133949
0.124457
0.132551
0.138126
0.128901
0.12535
0.123624
0.121598
0.139877
0.139039
0.139899
0.140231
0.117458
0.117685
0.117794
0.142628
0.14144
0.116023
0.115686
0.13802
0.116121
0.143226
0.122998
0.0404605
0.00790345
0.00422083
0.00129985
0.000875867
0.00034018
0.000168497
0.000135305
0.000148398
0.000124934
1.40661e-05
0
0
0
0
0
0
0
0
0
0
0
0
0
0
0
0
0
0
0
0
0
0
0
0
0
0
0
0
0
0
0
0
0
0
0
0
0
0
0
0
0
0
0
0
0.13819
0.111885
0.137787
0.143334
0.140645
0.124759
0.137197
0.136979
0.135186
0.137256
0.132132
0.115874
0.117272
0.12112
0.142874
0.140073
0.124843
0.129921
0.122666
0.130544
0.134399
0.122499
0.138134
0.139876
0.139962
0.140934
0.141929
0.14303
0.143411
0.143066
0.141879
0.118009
0.117787
0.142935
0.118452
0.144967
0.14514
0.144737
0.143513
0.141568
0.116105
0.115878
0.141012
0.144849
0.119592
0.0285271
0.0138326
0.00322915
0.00110373
0.000725764
0.00016499
8.03823e-05
5.72346e-05
4.64656e-05
2.46581e-05
3.09072e-06
0
0
0
0
0
0
0
0
0
0
0
0
0
0
0
0
0
0
0
0
0
0
0
0
0
0
0
0
0
0
0
0
0
0
0
0
0
0
0
0
0
0
0
0
0.141017
0.12181
0.131961
0.146846
0.150124
0.14788
0.146775
0.147028
0.147279
0.147754
0.147831
0.148398
0.126634
0.13131
0.149341
0.147973
0.145165
0.140989
0.139353
0.138809
0.14125
0.142729
0.14242
0.142303
0.143582
0.134443
0.145371
0.131855
0.145902
0.145497
0.123876
0.121926
0.144328
0.119605
0.122343
0.146525
0.146461
0.145202
0.120466
0.143497
0.117381
0.141249
0.143358
0.120046
0.109907
0.0424868
0.0103938
0.00256488
0.00116851
0.00049181
0.000103656
4.61104e-05
2.39379e-05
1.33826e-05
4.6812e-06
0
0
0
0
0
0
0
0
0
0
0
0
0
0
0
0
0
0
0
0
0
0
0
0
0
0
0
0
0
0
0
0
0
0
0
0
0
0
0
0
0
0
0
0
0
0.141792
0.132502
0.123881
0.128314
0.143109
0.147595
0.147418
0.14901
0.150406
0.150782
0.149326
0.147416
0.14538
0.145583
0.14395
0.149118
0.150655
0.148546
0.14592
0.123063
0.146102
0.121899
0.146046
0.145847
0.146158
0.147651
0.148148
0.148321
0.147931
0.130602
0.127362
0.146328
0.123949
0.123487
0.146774
0.14701
0.12808
0.14607
0.127157
0.144731
0.143229
0.118176
0.145027
0.145022
0.0941974
0.0336871
0.00807999
0.00206088
0.00108676
0.000452755
0.000138115
4.7502e-05
1.54929e-05
5.82813e-06
1.5739e-06
0
0
0
0
0
0
0
0
0
0
0
0
0
0
0
0
0
0
0
0
0
0
0
0
0
0
0
0
0
0
0
0
0
0
0
0
0
0
0
0
0
0
0
0
0
0.141986
0.1391
0.133093
0.125898
0.124483
0.131282
0.134959
0.138857
0.142087
0.140664
0.1373
0.132981
0.129992
0.131842
0.137834
0.144663
0.148121
0.130169
0.149592
0.149812
0.123745
0.149267
0.149213
0.149074
0.149102
0.149672
0.121027
0.149825
0.149178
0.127665
0.147391
0.147253
0.14683
0.146746
0.146938
0.147088
0.1468
0.145984
0.132148
0.126663
0.144543
0.14428
0.145898
0.117152
0.0769259
0.0262382
0.00639095
0.00178607
0.000979302
0.00056596
0.00027912
0.000101148
2.3595e-05
7.61153e-06
2.84127e-06
0
0
0
0
0
0
0
0
0
0
0
0
0
0
0
0
0
0
0
0
0
0
0
0
0
0
0
0
0
0
0
0
0
0
0
0
0
0
0
0
0
0
0
0
0
0.141968
0.140995
0.139051
0.134832
0.127812
0.123631
0.123129
0.123221
0.122994
0.118645
0.112606
0.107908
0.107182
0.112551
0.122328
0.133115
0.141652
0.147164
0.150431
0.128921
0.127953
0.150862
0.150884
0.119726
0.119519
0.15113
0.151027
0.15042
0.149689
0.119558
0.118757
0.147071
0.146382
0.146205
0.12218
0.146668
0.145996
0.132878
0.132773
0.145846
0.145032
0.145679
0.14642
0.139025
0.0815657
0.02058
0.00502589
0.00153917
0.000902939
0.000680466
0.000398204
0.000342695
4.96561e-05
1.35226e-05
7.32196e-06
3.0649e-06
0
0
0
0
0
0
0
0
0
0
0
0
0
0
0
0
0
0
0
0
0
0
0
0
0
0
0
0
0
0
0
0
0
0
0
0
0
0
0
0
0
0
0
0
0.141836
0.141227
0.14033
0.138714
0.134788
0.128955
0.124158
0.118625
0.111355
0.10077
0.0905852
0.0848614
0.0855127
0.092942
0.105269
0.119377
0.132491
0.137947
0.147788
0.15076
0.151628
0.151809
0.151774
0.151696
0.151704
0.151833
0.119048
0.150522
0.149379
0.147939
0.146755
0.113705
0.112953
0.145503
0.145792
0.145967
0.145756
0.145035
0.145693
0.146335
0.146257
0.146491
0.14583
0.131762
0.0658796
0.0160971
0.00398954
0.00131526
0.000855908
0.000581525
0.000416666
0.000417065
7.72486e-05
1.95272e-05
1.58443e-05
1.21781e-05
0
0
0
0
0
0
0
0
0
0
0
0
0
0
0
0
0
0
0
0
0
0
0
0
0
0
0
0
0
0
0
0
0
0
0
0
0
0
0
0
0
0
0
0
0.141592
0.140829
0.139953
0.138722
0.136248
0.132012
0.125172
0.114725
0.0998239
0.0840734
0.0716362
0.0659463
0.0674331
0.075688
0.0891116
0.105276
0.121043
0.134095
0.140789
0.148711
0.130527
0.152172
0.152275
0.152152
0.152093
0.151913
0.151123
0.149864
0.148305
0.146474
0.145221
0.113036
0.144312
0.144431
0.144848
0.144813
0.136176
0.146333
0.145547
0.146758
0.14692
0.125372
0.144389
0.121602
0.0519225
0.0126337
0.0032552
0.00126529
0.000797914
0.000480724
0.000391254
0.0001855
3.66349e-05
1.92381e-05
2.37718e-05
4.40241e-05
3.94724e-06
0
0
0
0
0
0
0
0
0
0
0
0
0
0
0
0
0
0
0
0
0
0
0
0
0
0
0
0
0
0
0
0
0
0
0
0
0
0
0
0
0
0
0
0.14118
0.139963
0.138788
0.137076
0.134133
0.128763
0.117982
0.101224
0.0824792
0.0659464
0.055047
0.0508927
0.0532164
0.061664
0.0751173
0.0919925
0.109472
0.124981
0.134648
0.144214
0.149452
0.151562
0.152304
0.152185
0.151904
0.121469
0.120027
0.148466
0.146311
0.144262
0.143055
0.142613
0.142733
0.143241
0.143595
0.14341
0.145005
0.14651
0.147158
0.147123
0.147565
0.147674
0.140204
0.087418
0.0407707
0.00998364
0.00268328
0.00121276
0.000712324
0.000445774
0.000236776
6.84402e-05
1.90796e-05
1.4147e-05
1.70626e-05
1.36227e-05
1.47715e-06
0
0
0
0
0
0
0
0
0
0
0
0
0
0
0
0
0
0
0
0
0
0
0
0
0
0
0
0
0
0
0
0
0
0
0
0
0
0
0
0
0
0
0
0.140471
0.138499
0.136595
0.133911
0.128915
0.119209
0.102927
0.082282
0.0636491
0.049732
0.041735
0.0394702
0.0425119
0.0507265
0.0636148
0.0801351
0.0983588
0.115255
0.129241
0.137122
0.145266
0.149152
0.128983
0.151003
0.150555
0.149249
0.147732
0.145947
0.143546
0.141438
0.140502
0.14038
0.141014
0.12215
0.131264
0.142684
0.145454
0.146941
0.147348
0.147504
0.148133
0.147438
0.134096
0.0942102
0.0313087
0.00793913
0.00223273
0.00112467
0.000615333
0.000414527
0.00022331
3.54544e-05
1.00247e-05
8.20389e-06
7.9767e-06
3.7054e-06
0
0
0
0
0
0
0
0
0
0
0
0
0
0
0
0
0
0
0
0
0
0
0
0
0
0
0
0
0
0
0
0
0
0
0
0
0
0
0
0
0
0
0
0
0.139257
0.13548
0.132218
0.126963
0.118513
0.104103
0.0836697
0.0632698
0.0475798
0.0371385
0.0318084
0.0310853
0.0346287
0.0424104
0.0543534
0.0699587
0.0880328
0.105644
0.121023
0.130787
0.139347
0.14483
0.147485
0.148329
0.125664
0.146181
0.144031
0.117588
0.140063
0.13814
0.137745
0.138099
0.139194
0.140295
0.140293
0.142687
0.14642
0.147418
0.147527
0.148236
0.148317
0.146627
0.125455
0.0532175
0.0243117
0.00630973
0.00193695
0.00102358
0.000525548
0.00032522
9.21663e-05
1.85477e-05
5.07064e-06
3.80112e-06
2.84153e-06
0
0
0
0
0
0
0
0
0
0
0
0
0
0
0
0
0
0
0
0
0
0
0
0
0
0
0
0
0
0
0
0
0
0
0
0
0
0
0
0
0
0
0
0
0
0.137074
0.128545
0.120528
0.112923
0.101256
0.0839182
0.0637655
0.046897
0.0351725
0.0277526
0.0245348
0.0250166
0.0288324
0.0361095
0.0470118
0.0614401
0.0786875
0.0963469
0.112163
0.124491
0.12286
0.138457
0.142273
0.143917
0.121784
0.141747
0.139286
0.137939
0.135759
0.13448
0.134895
0.135778
0.137313
0.138488
0.139805
0.143723
0.147452
0.147794
0.147582
0.148439
0.11884
0.14407
0.114252
0.065535
0.0186432
0.00497071
0.001695
0.000916745
0.000439559
0.000293513
6.74145e-05
1.31534e-05
2.8935e-06
1.37341e-06
0
0
0
0
0
0
0
0
0
0
0
0
0
0
0
0
0
0
0
0
0
0
0
0
0
0
0
0
0
0
0
0
0
0
0
0
0
0
0
0
0
0
0
0
0
0
0.132008
0.112672
0.0984721
0.0889834
0.076864
0.0610267
0.0456336
0.033661
0.0255622
0.0208279
0.0193452
0.0206445
0.0245182
0.031277
0.0411766
0.054336
0.070374
0.0875694
0.10338
0.116067
0.123848
0.128806
0.134779
0.137476
0.1378
0.13629
0.109754
0.132454
0.131074
0.130618
0.132097
0.133433
0.135058
0.137352
0.140535
0.145263
0.148202
0.147794
0.147625
0.148493
0.147415
0.139344
0.100978
0.0515081
0.0141663
0.00394288
0.00151762
0.000804853
0.000377436
0.000200754
7.67697e-05
1.66485e-05
2.57437e-06
0
0
0
0
0
0
0
0
0
0
0
0
0
0
0
0
0
0
0
0
0
0
0
0
0
0
0
0
0
0
0
0
0
0
0
0
0
0
0
0
0
0
0
0
0
0
0
0.116025
0.0805822
0.0640912
0.0569812
0.0495448
0.0400474
0.030946
0.0237313
0.0188262
0.0162295
0.0156796
0.0174152
0.0212186
0.0274663
0.036451
0.0483743
0.0630604
0.0793566
0.094811
0.107307
0.116357
0.119968
0.125055
0.129342
0.130975
0.106891
0.107173
0.12668
0.126136
0.126768
0.110868
0.130871
0.132454
0.136805
0.142044
0.14634
0.148514
0.147422
0.147678
0.14811
0.14521
0.131195
0.0856913
0.0222182
0.0108696
0.0031701
0.00137167
0.000682972
0.000285792
0.000146902
0.000120892
2.71081e-05
3.466e-06
0
0
0
0
0
0
0
0
0
0
0
0
0
0
0
0
0
0
0
0
0
0
0
0
0
0
0
0
0
0
0
0
0
0
0
0
0
0
0
0
0
0
0
0
0
0
0
0.00525685
0.0109535
0.0154563
0.0185363
0.0195008
0.0185695
0.0165882
0.0144319
0.0126789
0.0117394
0.0120276
0.0140558
0.0178561
0.0234582
0.031258
0.0413885
0.053672
0.0675827
0.0813965
0.0931232
0.101876
0.107775
0.109896
0.112704
0.116486
0.116627
0.116341
0.11676
0.11816
0.120784
0.124091
0.126559
0.132613
0.138815
0.143946
0.147735
0.14858
0.146314
0.147368
0.145911
0.138419
0.112409
0.0363072
0.0228679
0.00661046
0.00220986
0.00109054
0.000403381
0.000109491
6.58965e-05
7.20197e-05
3.00134e-05
1.76709e-06
0
0
0
0
0
0
0
0
0
0
0
0
0
0
0
0
0
0
0
0
0
0
0
0
0
0
0
0
0
0
0
0
0
0
0
0
0
0
0
0
0
0
0
0
0
0
0
0.000625372
0.00213412
0.00397738
0.00575831
0.00717331
0.0080328
0.00830955
0.00821205
0.00805099
0.00817535
0.00892181
0.0106504
0.0139621
0.0188107
0.025286
0.0335967
0.0435251
0.0545507
0.0659366
0.0762742
0.084365
0.0903073
0.0940558
0.0964693
0.0986743
0.100258
0.102453
0.105101
0.10975
0.115522
0.121017
0.125902
0.133006
0.139063
0.144371
0.14741
0.146472
0.144836
0.144484
0.138618
0.122593
0.055285
0.0229777
0.013395
0.0040759
0.00165301
0.000728481
0.000185904
4.50118e-05
2.04903e-05
1.2356e-05
2.64373e-06
0
0
0
0
0
0
0
0
0
0
0
0
0
0
0
0
0
0
0
0
0
0
0
0
0
0
0
0
0
0
0
0
0
0
0
0
0
0
0
0
0
0
0
0
0
0
0
0
9.58461e-05
0.000464872
0.00110309
0.00194307
0.00286669
0.00370581
0.00437134
0.00485993
0.00530828
0.00589447
0.00683885
0.00839255
0.0109088
0.0149439
0.0202749
0.0269614
0.0348805
0.0435529
0.0524279
0.060872
0.0680968
0.0738974
0.0784399
0.0823023
0.085872
0.0890978
0.0921599
0.0972734
0.103787
0.111403
0.118623
0.125455
0.130699
0.137244
0.142956
0.145121
0.141378
0.142089
0.136975
0.123676
0.0974274
0.0553983
0.0264407
0.00794185
0.0026246
0.00124536
0.000446485
9.78828e-05
2.28977e-05
6.12685e-06
1.75703e-06
0
0
0
0
0
0
0
0
0
0
0
0
0
0
0
0
0
0
0
0
0
0
0
0
0
0
0
0
0
0
0
0
0
0
0
0
0
0
0
0
0
0
0
0
0
0
0
0
0
1.97065e-05
0.000107762
0.000309755
0.000668792
0.00117129
0.00175427
0.0023494
0.00294448
0.00356607
0.00432786
0.0053464
0.00676548
0.00883508
0.0119598
0.0163565
0.0217354
0.0280139
0.0348755
0.0418963
0.0487778
0.0552829
0.0610838
0.0663048
0.0713161
0.0762792
0.0814098
0.0862432
0.0924306
0.0992078
0.107027
0.114607
0.122679
0.127081
0.133604
0.139124
0.139728
0.136646
0.134584
0.123177
0.0990614
0.0658161
0.0363715
0.0146613
0.00462993
0.00184469
0.000890462
0.000261891
7.56453e-05
2.09409e-05
4.08086e-06
0
0
0
0
0
0
0
0
0
0
0
0
0
0
0
0
0
0
0
0
0
0
0
0
0
0
0
0
0
0
0
0
0
0
0
0
0
0
0
0
0
0
0
0
0
0
0
0
0
0
3.30374e-06
2.5641e-05
9.19293e-05
0.000240339
0.000494274
0.000848109
0.00128204
0.00179745
0.0024304
0.00322088
0.00424136
0.00556968
0.00738908
0.00998442
0.0135412
0.018043
0.0232104
0.0288868
0.034794
0.0407611
0.0467503
0.0526266
0.0583709
0.0641501
0.0700567
0.0760904
0.0823458
0.0889316
0.096002
0.10374
0.110962
0.117905
0.121442
0.127431
0.132099
0.130114
0.129759
0.12078
0.102529
0.0678683
0.0396927
0.0206737
0.00781106
0.00274836
0.00129294
0.000488318
0.000116733
5.85345e-05
2.87314e-05
3.28739e-06
0
0
0
0
0
0
0
0
0
0
0
0
0
0
0
0
0
0
0
0
0
0
0
0
0
0
0
0
0
0
0
0
0
0
0
0
0
0
0
0
0
0
0
0
0
0
0
0
0
0
0
6.81518e-06
2.98789e-05
9.34088e-05
0.000218245
0.000419884
0.000713972
0.00112316
0.00168849
0.00245051
0.00343468
0.00457238
0.0060575
0.00827507
0.0112534
0.0151312
0.0196963
0.0247742
0.0301917
0.0358309
0.0416724
0.0476942
0.0538371
0.060157
0.0666777
0.0733362
0.080173
0.0868565
0.0936836
0.100696
0.106647
0.110738
0.112561
0.116866
0.121079
0.123468
0.115977
0.0990833
0.0780076
0.0413939
0.0222345
0.0107712
0.00411209
0.00179199
0.000762798
0.000193846
5.78552e-05
2.47908e-05
6.45229e-06
0
0
0
0
0
0
0
0
0
0
0
0
0
0
0
0
0
0
0
0
0
0
0
0
0
0
0
0
0
0
0
0
0
0
0
0
0
0
0
0
0
0
0
0
0
0
0
0
0
0
0
0
2.14577e-06
1.11847e-05
3.98817e-05
0.000104901
0.000228795
0.000436008
0.000760741
0.00124581
0.00192188
0.00270511
0.00364282
0.00490448
0.00691089
0.00961642
0.0130707
0.017279
0.0220899
0.0273489
0.0329482
0.0388554
0.0450691
0.05153
0.0582239
0.0650896
0.0720018
0.0788624
0.085205
0.0912375
0.0968488
0.100295
0.100324
0.101465
0.106168
0.111992
0.111186
0.0959386
0.0718609
0.0522521
0.0235278
0.0118611
0.00547035
0.00234733
0.00116236
0.000424433
8.34351e-05
2.57828e-05
7.79348e-06
1.49546e-06
0
0
0
0
0
0
0
0
0
0
0
0
0
0
0
0
0
0
0
0
0
0
0
0
0
0
0
0
0
0
0
0
0
0
0
0
0
0
0
0
0
0
0
0
0
0
0
0
0
0
0
0
0
5.01674e-06
2.0292e-05
5.89658e-05
0.000141123
0.000294445
0.000559564
0.000977076
0.00151742
0.00216748
0.00299045
0.00411469
0.00592214
0.00850004
0.0116786
0.0156535
0.0203454
0.0255944
0.031283
0.0373493
0.0437643
0.0504641
0.0573657
0.0643143
0.0710985
0.0775523
0.0831073
0.0876396
0.0901119
0.0908763
0.0900537
0.0898331
0.0931196
0.098068
0.093418
0.0722999
0.0464492
0.0309954
0.0129983
0.00630222
0.0028719
0.00147849
0.000661519
0.000246299
6.27495e-05
2.29325e-05
3.79018e-06
0
0
0
0
0
0
0
0
0
0
0
0
0
0
0
0
0
0
0
0
0
0
0
0
0
0
0
0
0
0
0
0
0
0
0
0
0
0
0
0
0
0
0
0
0
0
0
0
0
0
0
0
0
0
0
7.26535e-06
2.29627e-05
6.55343e-05
0.000161911
0.000343108
0.000691542
0.00121441
0.00179873
0.00255847
0.00360176
0.00527687
0.00773675
0.0107536
0.0145759
0.0191867
0.0244581
0.0302566
0.0364795
0.0430532
0.0498821
0.0568132
0.0635824
0.0698147
0.0752236
0.0792272
0.0811587
0.0812785
0.0798626
0.0768493
0.073998
0.0758731
0.0799948
0.0730074
0.0495357
0.0276961
0.0168994
0.00713802
0.00333944
0.00174475
0.000831952
0.000354757
8.69054e-05
3.00367e-05
7.93918e-06
0
0
0
0
0
0
0
0
0
0
0
0
0
0
0
0
0
0
0
0
0
0
0
0
0
0
0
0
0
0
0
0
0
0
0
0
0
0
0
0
0
0
0
0
0
0
0
0
0
0
0
0
0
0
0
0
2.33467e-06
7.18019e-06
2.22445e-05
6.65938e-05
0.000176631
0.000429969
0.000906448
0.00149341
0.00221455
0.00321237
0.0048161
0.0071791
0.0100892
0.0137787
0.0182909
0.0235451
0.0293969
0.0356961
0.0423168
0.0491109
0.0558491
0.0621618
0.0674485
0.0710256
0.0726926
0.0727572
0.0708078
0.0669651
0.0616311
0.0563153
0.0566182
0.0598704
0.0530088
0.0314843
0.0157717
0.00892452
0.00389797
0.00198142
0.00101127
0.000409848
0.000111472
3.9796e-05
1.10985e-05
2.45402e-06
0
0
0
0
0
0
0
0
0
0
0
0
0
0
0
0
0
0
0
0
0
0
0
0
0
0
0
0
0
0
0
0
0
0
0
0
0
0
0
0
0
0
0
0
0
0
0
0
0
0
0
0
0
0
0
0
0
2.13723e-06
6.48365e-06
2.19809e-05
7.2325e-05
0.000220906
0.000597248
0.00119513
0.00189161
0.00282121
0.00434924
0.00661724
0.00943454
0.0129735
0.0173259
0.0224649
0.0282472
0.0344741
0.0409594
0.0474928
0.0537668
0.0593459
0.0635916
0.0657841
0.0658397
0.0631977
0.0583687
0.0525933
0.0461868
0.0393631
0.038138
0.040275
0.0346778
0.0183838
0.0086446
0.00459225
0.00223232
0.00115258
0.000494129
0.000125893
4.55978e-05
1.26965e-05
3.14917e-06
0
0
0
0
0
0
0
0
0
0
0
0
0
0
0
0
0
0
0
0
0
0
0
0
0
0
0
0
0
0
0
0
0
0
0
0
0
0
0
0
0
0
0
0
0
0
0
0
0
0
0
0
0
0
0
0
0
0
0
1.79956e-06
6.21517e-06
2.46436e-05
9.37399e-05
0.000328537
0.000883036
0.00157787
0.00244868
0.00382536
0.00594977
0.00864374
0.0119784
0.0160775
0.0209614
0.026499
0.0324468
0.0385502
0.0445291
0.0500243
0.0545897
0.0577522
0.0587373
0.0566553
0.0515445
0.0448808
0.0383351
0.0325411
0.0258122
0.0228519
0.0242278
0.0203272
0.0102047
0.00470262
0.00250207
0.00132526
0.000619996
0.00019805
5.15206e-05
1.56568e-05
3.87186e-06
0
0
0
0
0
0
0
0
0
0
0
0
0
0
0
0
0
0
0
0
0
0
0
0
0
0
0
0
0
0
0
0
0
0
0
0
0
0
0
0
0
0
0
0
0
0
0
0
0
0
0
0
0
0
0
0
0
0
0
0
0
0
7.44533e-06
3.39088e-05
0.000150297
0.000542607
0.00125011
0.00205577
0.00321183
0.00512622
0.00764875
0.010709
0.0144491
0.0189223
0.0240151
0.0294479
0.0348952
0.0400322
0.0445032
0.0477828
0.0496764
0.049477
0.0458481
0.0393576
0.0319095
0.0255721
0.0208983
0.0159789
0.012776
0.0129924
0.0106699
0.00535864
0.00259838
0.00143742
0.000677322
0.000241604
7.12993e-05
2.59358e-05
5.46235e-06
0
0
0
0
0
0
0
0
0
0
0
0
0
0
0
0
0
0
0
0
0
0
0
0
0
0
0
0
0
0
0
0
0
0
0
0
0
0
0
0
0
0
0
0
0
0
0
0
0
0
0
0
0
0
0
0
0
0
0
0
0
0
0
1.88921e-06
9.95552e-06
5.66188e-05
0.000261301
0.000857237
0.00164277
0.00260224
0.00418523
0.00642885
0.00915004
0.0124281
0.0163378
0.0207806
0.0254505
0.0299846
0.0340631
0.0374175
0.0392742
0.0399723
0.0391637
0.0347691
0.0280288
0.0208895
0.0155247
0.0122752
0.00934311
0.00682275
0.00634363
0.00507241
0.00275273
0.00147826
0.000702659
0.000254135
6.40882e-05
2.41019e-05
7.27537e-06
1.52885e-06
0
0
0
0
0
0
0
0
0
0
0
0
0
0
0
0
0
0
0
0
0
0
0
0
0
0
0
0
0
0
0
0
0
0
0
0
0
0
0
0
0
0
0
0
0
0
0
0
0
0
0
0
0
0
0
0
0
0
0
0
0
0
0
0
2.71069e-06
1.54389e-05
0.00010459
0.000439758
0.00117889
0.0020289
0.00317511
0.00501138
0.0073654
0.0101223
0.0133506
0.0169716
0.0206782
0.0241162
0.0270465
0.0293842
0.0299112
0.0296147
0.0281235
0.0242367
0.0184271
0.0126378
0.00872272
0.00661663
0.0050159
0.00349803
0.0029924
0.00239865
0.00140515
0.000688005
0.000241108
6.27885e-05
2.0579e-05
6.95175e-06
1.90519e-06
0
0
0
0
0
0
0
0
0
0
0
0
0
0
0
0
0
0
0
0
0
0
0
0
0
0
0
0
0
0
0
0
0
0
0
0
0
0
0
0
0
0
0
0
0
0
0
0
0
0
0
0
0
0
0
0
0
0
0
0
0
0
0
0
0
0
4.24416e-06
2.43491e-05
0.000143901
0.00063146
0.00143053
0.00232806
0.00360461
0.00543481
0.00769192
0.0102154
0.012932
0.0156012
0.0179238
0.0197316
0.020873
0.0207496
0.0198952
0.0182643
0.0151525
0.0110099
0.00718571
0.0046234
0.0033389
0.00258344
0.00191325
0.00151216
0.00111062
0.000610173
0.000197549
5.87025e-05
1.97788e-05
6.06656e-06
1.83512e-06
0
0
0
0
0
0
0
0
0
0
0
0
0
0
0
0
0
0
0
0
0
0
0
0
0
0
0
0
0
0
0
0
0
0
0
0
0
0
0
0
0
0
0
0
0
0
0
0
0
0
0
0
0
0
0
0
0
0
0
0
0
0
0
0
0
0
0
0
7.19762e-06
4.06027e-05
0.000206155
0.000763286
0.00154955
0.00243476
0.00363854
0.00526877
0.00716406
0.00907733
0.0108111
0.0121729
0.0130679
0.0134566
0.0129493
0.0119549
0.0105165
0.00842811
0.00590647
0.00381768
0.00249867
0.00181136
0.00136832
0.000914198
0.0006567
0.000423333
0.000131499
5.00103e-05
1.79144e-05
5.74938e-06
1.6825e-06
0
0
0
0
0
0
0
0
0
0
0
0
0
0
0
0
0
0
0
0
0
0
0
0
0
0
0
0
0
0
0
0
0
0
0
0
0
0
0
0
0
0
0
0
0
0
0
0
0
0
0
0
0
0
0
0
0
0
0
0
0
0
0
0
0
0
0
0
0
2.45402e-06
1.11505e-05
5.93347e-05
0.000256478
0.000771238
0.00149257
0.0022818
0.00322155
0.00442129
0.00563239
0.00673293
0.00748847
0.00784155
0.00777888
0.00727742
0.00644026
0.00543151
0.00427113
0.00304669
0.00206668
0.00135143
0.000885671
0.000590327
0.000349415
0.000154015
7.86013e-05
3.66505e-05
1.42896e-05
4.99455e-06
1.55102e-06
0
0
0
0
0
0
0
0
0
0
0
0
0
0
0
0
0
0
0
0
0
0
0
0
0
0
0
0
0
0
0
0
0
0
0
0
0
0
0
0
0
0
0
0
0
0
0
0
0
0
0
0
0
0
0
0
0
0
0
0
0
0
0
0
0
0
0
0
0
0
0
3.49016e-06
1.42537e-05
6.40117e-05
0.000227516
0.000661235
0.0012497
0.00187364
0.0025219
0.00316348
0.00373107
0.00408573
0.00419272
0.00405857