/*--------------------------------*- C++ -*----------------------------------*\
  =========                 |
  \\      /  F ield         | OpenFOAM: The Open Source CFD Toolbox
   \\    /   O peration     | Website:  https://openfoam.org
    \\  /    A nd           | Version:  6
     \\/     M anipulation  |
\*---------------------------------------------------------------------------*/
FoamFile
{
    version     2.0;
    format      ascii;
    class       volScalarField;
    location    "0.005";
    object      epsilon;
}
// * * * * * * * * * * * * * * * * * * * * * * * * * * * * * * * * * * * * * //

dimensions      [0 2 -3 0 0 0 0];

internalField   nonuniform List<scalar> 
8000
(
704.059
688.994
677.688
666.551
654.015
642.495
636.069
632.665
632.407
640.148
629.287
629.445
656.802
667.915
678.517
695.074
788.278
1023.31
1172.44
1249.06
1286.31
1401.77
2756.7
1535.96
1343.23
1760.9
2781.72
4202.8
5935.24
7840.98
9666.43
11248.8
12451.9
13433.6
14270.8
14640.8
14786.6
15041.1
15363.7
15776.2
16352.8
17476.7
19040.7
23923.2
26279.3
12798
8444.32
6397.49
3345.56
839.74
131.507
16.5728
2.81518
1.40087
1.20769
1.14839
1.11133
1.08271
1.06122
1.04482
1.03287
1.02408
1.01726
1.01137
1.00566
1.00008
0.994912
0.990985
0.988738
0.988641
0.990726
0.994573
0.999555
1.00507
1.0105
1.01547
1.01974
1.02324
1.02605
1.02823
1.02995
1.03153
1.03283
1.03412
1.03533
1.03664
1.03816
1.03995
1.04192
1.04417
1.04691
1.05014
1.05389
1.05794
1.06213
1.0662
1.07
1.07339
1.07625
1.07579
700.546
689.931
680.191
670.173
658.789
648.172
642.532
641.513
646.11
663.987
660.591
671.088
709.495
744.377
759.273
770.01
882.704
1159.47
1381.32
1411.29
1436.3
1555.37
1955.45
1468.21
1408.93
1746.93
2715.32
4094.2
5834.89
7710.82
9498.37
11067.6
12306.2
13368
14357.6
14883.4
15088.1
15489.7
15904.2
16492.2
17248.9
18385.3
19808.5
24238.5
26478.7
13336.6
9408.81
8531.65
4438.54
988.135
154.944
18.7381
2.85792
1.37735
1.18881
1.13335
1.09909
1.07268
1.05298
1.03806
1.02728
1.0194
1.01328
1.00791
1.0026
0.997273
0.992204
0.988194
0.985701
0.985233
0.986867
0.990262
0.994824
0.999978
1.0051
1.00981
1.01389
1.01724
1.01994
1.02205
1.02371
1.02521
1.02646
1.02769
1.02887
1.03016
1.03168
1.03349
1.03552
1.03784
1.04064
1.04386
1.04751
1.05136
1.05524
1.05892
1.0623
1.06527
1.06776
1.06688
701.659
692.959
683.73
675.487
667.372
659.799
657.873
664.245
685.261
753.634
765.255
808.704
980.93
967.845
874.201
933.669
1167.4
1741.28
2146.63
2011.56
2095.98
2014.87
2381.86
1898.09
1643.18
1759.83
2432.31
3807.94
5660.87
7556.78
9187.8
10729.7
12054.3
13308.2
14650.2
15578.5
15897.5
16480.3
17240.5
18157.1
19089.3
20528
21676
25185.3
26841.4
14031
8404.14
8293.66
3683.51
869.838
124.52
13.9409
2.37648
1.29983
1.14585
1.10014
1.07274
1.05158
1.03591
1.02425
1.01602
1.0101
1.00544
1.00108
0.996417
0.991344
0.986141
0.981565
0.978137
0.976447
0.976704
0.978723
0.982009
0.986025
0.990166
0.994068
0.997526
1.00046
1.00289
1.00489
1.00659
1.00814
1.00956
1.01099
1.01242
1.01397
1.01571
1.0177
1.01989
1.02233
1.02511
1.02816
1.03142
1.03469
1.0378
1.04058
1.043
1.0451
1.04696
1.04625
703.937
698.664
691.885
688.013
684.902
686.369
696.189
716.051
778.2
891.142
991.766
1041.82
1623.02
1144.67
1162.36
1304.87
1738.55
3288.29
3295.48
3383.02
3893.7
2901.78
3042.45
2245.59
1904.59
1976.54
2638.87
3809.77
5271.4
7382.33
8642.86
10327.8
11814.2
13372.3
15268.7
17059.4
17361.1
18237.3
19298.7
20872.1
22075.6
23817.1
24730.7
27020.2
28037.6
14667.3
7006.81
4327.61
1592.27
394.214
57.2566
7.32075
1.86869
1.24625
1.122
1.08109
1.05655
1.03748
1.02347
1.0132
1.00603
1.00089
0.996754
0.992749
0.988322
0.983335
0.978056
0.973177
0.969232
0.966843
0.966295
0.967482
0.969966
0.973216
0.976637
0.979861
0.982683
0.985048
0.986978
0.988561
0.98991
0.991163
0.992372
0.993652
0.99501
0.996514
0.9982
1.00011
1.00223
1.00456
1.00713
1.00984
1.0126
1.0152
1.01749
1.01937
1.02086
1.02211
1.02341
1.02319
709.982
711.358
711.331
719.926
729.038
757.352
797.532
841.658
919.916
1065.31
1081.99
1252.13
1446.3
1547.91
1637.7
1926.87
2965.89
4625.47
7031.25
6580.97
5957.75
4297.25
3699.97
2544.86
2301.24
2298.58
2756.89
3284.98
4802.24
6341.03
8074.37
10186.6
11941.1
13711.6
15866.2
18929.8
19302.9
20708.6
22380
24634.1
26161.6
28320.8
29173
29827.9
30020
15582.1
5791.97
2127.09
654.921
166.72
25.7575
4.23257
1.61515
1.21832
1.10849
1.06901
1.04515
1.02663
1.0132
1.00347
0.99669
0.991779
0.987776
0.98388
0.979595
0.974749
0.96958
0.964689
0.960602
0.957937
0.957028
0.957823
0.95993
0.962815
0.965885
0.968761
0.971228
0.973243
0.974838
0.976112
0.977179
0.978169
0.979152
0.980222
0.981393
0.982705
0.984176
0.985832
0.98767
0.989675
0.99182
0.994006
0.996102
0.997929
0.999344
1.00029
1.00084
1.00125
1.00202
1.00222
728.028
754.087
777.234
813.318
871.556
942.541
1035.86
1150.35
1292
1470.34
1621.78
1818.44
2071.5
2188.73
2355.23
2940.48
5198.62
7661.2
15997.8
12524.4
11606.3
5244.83
3929.07
2916.89
2617.75
2581.44
2857.78
3264.44
4928.71
5768.7
7646.79
9689.75
12717.6
14228.3
17197.8
20414.8
21952
23979.8
26287.5
29411.2
31321
33864.4
33767.5
33156.8
32786.6
17091.8
5595.01
1429.39
343.098
81.6127
14.3196
3.12565
1.51699
1.20341
1.0986
1.05947
1.03572
1.01738
1.00425
0.994851
0.988274
0.983474
0.979533
0.975724
0.971595
0.966936
0.961952
0.957155
0.953065
0.950293
0.949205
0.949799
0.951719
0.954432
0.957349
0.960077
0.962389
0.964249
0.965697
0.966837
0.967783
0.968659
0.969533
0.970484
0.971522
0.972671
0.973939
0.975344
0.976877
0.978515
0.980206
0.981843
0.983287
0.984372
0.984976
0.985077
0.9848
0.984466
0.984732
0.985149
771.858
859.597
943.096
1055.95
1199.41
1389.28
1557.46
1794.83
2019.47
2259.75
2385.56
2661.4
2869.7
3160.93
3519.53
4697.63
6815.31
16370.2
27854
20343.2
12909
6545.76
3887.88
3101.17
2509.26
2573.85
2711.05
3113.06
3942.58
5292.78
7093.89
9526.44
12241.5
15307.7
19391.1
23079
25418.1
28170.5
31266.1
35067.9
37594.3
40145
39160.3
37359.7
37530.7
19274.5
6596.74
1492.19
266.701
54.7496
11.388
2.81268
1.4824
1.194
1.09069
1.05173
1.02807
1.00986
0.996972
0.987824
0.981412
0.97671
0.97284
0.969129
0.965153
0.96067
0.955856
0.951157
0.947085
0.94425
0.943042
0.943499
0.945293
0.947895
0.950718
0.953363
0.955592
0.957375
0.958756
0.959843
0.960747
0.961585
0.962419
0.963313
0.964274
0.965316
0.966439
0.967654
0.968948
0.970288
0.971608
0.972797
0.973713
0.974205
0.974166
0.973601
0.972672
0.971752
0.971598
0.972049
876.007
1098.69
1303.21
1555.03
1867.62
2256.11
2601.19
3148.88
3313.72
3649.85
3920.71
4217.33
4269.23
4686.52
4997.29
5554.41
7950.01
15223.5
48677.4
25280.4
14466.5
8612.79
3891.93
3148.39
2733.02
2472.08
2518.1
2877.46
3745.59
5330.93
7082.02
10155
13257.1
17119.7
22338.8
27003.6
29975.1
33463.8
36860.9
42014.4
46009.7
47627.1
45243.6
42149
40425.9
21495.5
8567.77
2082.68
303.247
51.1026
12.7139
2.70425
1.45732
1.18664
1.08463
1.04583
1.02231
1.00422
0.991536
0.982592
0.976321
0.971715
0.967922
0.964308
0.960459
0.956114
0.951422
0.946787
0.942719
0.939827
0.938519
0.938861
0.940545
0.943045
0.945781
0.948348
0.950503
0.952222
0.953552
0.9546
0.955479
0.956293
0.9571
0.957956
0.958863
0.959829
0.960851
0.961932
0.963054
0.964177
0.965224
0.966084
0.966613
0.966671
0.966165
0.965118
0.963717
0.962366
0.961884
0.962271
1118.69
1597.91
2026.82
2541.1
3113.22
3794.36
4404.61
5272.74
5234.58
5694.51
5512.12
5672.02
6215.39
5853.52
5585.47
6076.54
7631.24
17330
33996.2
23194.7
12302.1
5883.18
4201.42
3351.25
2559.46
2322
2377.49
2751.67
3582.27
5784.47
7286.42
11309
15203.3
19787.6
26508.8
32615
35987.3
40237.2
43637.3
49374.5
54994
55329.9
51924.2
47516.2
50079.4
24490.8
10016.5
2131.9
289.653
49.6336
11.5137
2.53551
1.43425
1.18204
1.08057
1.04165
1.01824
1.00025
0.987728
0.978946
0.972792
0.968275
0.964556
0.961026
0.957274
0.953023
0.948407
0.943804
0.939723
0.936775
0.93538
0.935621
0.937204
0.939607
0.942254
0.944738
0.946817
0.948469
0.949744
0.950749
0.951593
0.952377
0.953154
0.95397
0.954828
0.955733
0.956679
0.957663
0.958663
0.959631
0.960484
0.961109
0.961365
0.961118
0.960287
0.958905
0.957173
0.955519
0.954794
0.955084
1502.4
2486.57
3274.08
4159.45
5197.93
6225.93
7105.75
7590.9
8369.59
7609.39
7553.32
8419.05
8034.97
7165.63
6181.92
6821.77
6971.69
14490.3
58941.3
28328
12774.8
7743.82
4084.23
3029.98
2428.23
2230.62
2370.34
2778.33
3739.12
6526.73
8351.6
12347.3
19255.5
23353.2
31324.4
39343.3
43343.3
49504
51478
56830.9
62271.2
64002.2
60212
53964.3
49829.8
26737.8
18092.1
3249.79
374.604
52.2504
19.135
2.56798
1.42702
1.18268
1.07899
1.03903
1.01548
0.997548
0.985147
0.976492
0.970434
0.965995
0.962342
0.95888
0.955196
0.951006
0.946433
0.941841
0.93774
0.934741
0.933274
0.93343
0.934926
0.937241
0.939804
0.942208
0.944212
0.945798
0.947016
0.947974
0.94878
0.949527
0.950268
0.951044
0.951856
0.952709
0.953595
0.954508
0.955419
0.956278
0.956994
0.957455
0.957519
0.957064
0.95601
0.954402
0.952447
0.950586
0.949687
0.949886
1993.07
3846.36
5243.42
6654.15
8351.84
9902.95
10936.1
10403
10187.1
9313.06
9572
8461.57
8466.47
7881.37
6910.54
6292.72
6351.28
9087.18
31928.9
20291.5
9619.66
5703.15
3899.06
2809.78
2250.3
2236.87
2495.66
3016.82
4270.77
6850.93
9797.74
14516.8
21010.1
27987.1
36222.4
45069.3
49664.5
61103.4
60307.8
65503.1
70897.8
74152
71014.1
61375.9
55867.4
27115.6
30524.9
6618.31
596.59
67.543
9.55818
2.36907
1.42994
1.19145
1.08089
1.03797
1.01371
0.995726
0.983408
0.974853
0.968874
0.9645
0.960903
0.957493
0.953857
0.949705
0.945153
0.940562
0.93644
0.9334
0.931877
0.931966
0.933391
0.935633
0.938124
0.940458
0.942396
0.943923
0.94509
0.946003
0.946771
0.947482
0.948187
0.948924
0.949697
0.950507
0.951347
0.952207
0.953057
0.953838
0.954459
0.954805
0.95474
0.954143
0.952943
0.951187
0.949085
0.947086
0.94607
0.946197
4004.63
8600.6
10861.5
12356.3
15248.1
15072.7
14540.1
13424.5
11547.7
10151
8855.11
7917.64
7560.21
6540.69
6016.77
5632.51
6007.63
7776.16
20301.6
17853.3
7713.65
5023.13
3855.97
3033.92
2426.55
2419.05
2915.08
4241.03
5027.72
8291.73
11895.2
17777.2
25299
33462
41685.9
51079.5
56475.4
68208.1
70089.4
76034.2
80567.3
82253.8
84890.5
69884.1
62037.4
29478
34198.2
11457.7
565.346
57.4519
10.5752
2.35517
1.45142
1.21234
1.08796
1.03912
1.01273
0.994499
0.982229
0.97375
0.967834
0.963512
0.959961
0.95659
0.952988
0.948858
0.944319
0.939724
0.935584
0.932512
0.930947
0.930986
0.932357
0.934541
0.936975
0.939253
0.941138
0.942616
0.94374
0.944616
0.94535
0.94603
0.946703
0.947409
0.948149
0.948926
0.949731
0.950555
0.951361
0.952089
0.952645
0.952914
0.952762
0.952072
0.950778
0.948927
0.946733
0.944646
0.943551
0.943626
14598.7
25494.1
26107.1
23798.1
22038.6
19196.2
16236.3
13412.4
11728.7
9040.19
8341.75
7369.34
6545.45
6286.68
5248.26
4887.38
5801.82
7126.9
18310.6
11346.2
6560.41
4618.84
3750.25
2965.09
2682.37
2753.89
3149.95
4860.03
5872.59
9941.24
14879.2
21684.6
30377.2
39645.5
48935.5
58016.1
64248.5
77879.4
80385.8
88194.7
91599.2
91657.1
89167.9
78567.7
68626.7
32151
21921.2
6027.64
418.485
44.8812
7.27508
2.20611
1.48042
1.24543
1.10165
1.04301
1.01253
0.993672
0.981412
0.972994
0.967127
0.962849
0.959333
0.955991
0.952414
0.948298
0.943764
0.939164
0.935011
0.931917
0.930321
0.930324
0.931656
0.933798
0.936188
0.938423
0.940268
0.941709
0.9428
0.943646
0.944354
0.945009
0.945658
0.946338
0.947053
0.947806
0.948587
0.949385
0.950162
0.950854
0.951367
0.951584
0.951375
0.950626
0.949272
0.947362
0.945112
0.942971
0.941826
0.941865
37212
32054.6
27264.3
25086.2
20035.6
14936.5
13243.8
12083.4
10309.9
9189.5
8100.65
6959.28
6246.25
5532.31
4722.83
4461.98
5142.32
5812.9
13168.5
8170.34
5271.75
4299.85
3709.33
3172.49
2953.09
3142.86
3969.87
4773.96
7216.09
12213
18657.4
26590.5
36389.7
48069.3
58305
65791.7
74219.8
88518
91481.3
102643
105621
102834
98836.3
89255.9
74434.5
34337.3
14019.5
2112.45
271.614
35.0763
6.15973
2.1579
1.51666
1.28191
1.12112
1.04716
1.01273
0.993082
0.980817
0.972453
0.966627
0.962384
0.958898
0.95558
0.952019
0.947913
0.943381
0.938779
0.934617
0.931508
0.929892
0.929871
0.931176
0.933288
0.935647
0.937852
0.939669
0.941083
0.942148
0.942973
0.943662
0.944298
0.94493
0.945592
0.946289
0.947024
0.947789
0.948569
0.949327
0.949996
0.950479
0.950663
0.950416
0.949629
0.948239
0.946295
0.94401
0.941836
0.940659
0.940675
34386.6
21007.7
20094
18653.1
17517.3
13333.7
12764.2
10627.4
8874.55
8844.65
7717.88
6756.69
5912.2
5149.6
4273.98
4142.53
4478.05
5735.69
7030.28
6517.85
4880.33
4254.52
3763.56
3441.65
3277.16
3740.48
4322.04
5801.98
9005.49
15070.3
23749.4
32167.3
42740.2
60294.5
71016.9
74653.3
86645.5
99443.6
103221
113751
123706
111473
110273
112429
79469.4
32997
11174.7
1593.62
215.191
29.974
5.51721
2.14257
1.54973
1.30462
1.13926
1.0511
1.0122
0.992567
0.98036
0.972049
0.966259
0.962047
0.958587
0.955291
0.95174
0.947645
0.943111
0.93851
0.934344
0.931222
0.929594
0.929559
0.930847
0.93294
0.935277
0.937462
0.93926
0.940656
0.941703
0.942514
0.943189
0.943812
0.944432
0.94508
0.945765
0.946488
0.947242
0.948011
0.948755
0.949409
0.949873
0.950035
0.949764
0.948953
0.947541
0.945576
0.943271
0.941077
0.939879
0.939881
23189
19909.8
22110.2
18652.4
16828.7
13838.7
13081.5
11187
9702.33
9316.74
7526.97
6974.15
6255.34
5395.33
4613.42
4212.11
4279.68
5136.94
5964.83
5770.86
4705.73
4149.81
3862.67
3696.16
3766.37
4060.71
5014.29
7120.53
11702.2
19098.7
31515.1
39504.4
52866.1
70373.2
83012.6
87619.4
105447
111138
116986
125733
131001
125209
123752
108680
83271.5
27237.8
8275.94
1059.68
156.405
24.1571
4.90636
2.11263
1.55699
1.29812
1.13939
1.05071
1.01145
0.99207
0.979962
0.971711
0.96596
0.961779
0.958345
0.955066
0.951528
0.947439
0.942906
0.938303
0.934132
0.931001
0.929363
0.929315
0.93059
0.932667
0.934986
0.937155
0.938937
0.940317
0.94135
0.942148
0.942813
0.943425
0.944035
0.944672
0.945346
0.946059
0.946804
0.947564
0.948299
0.94894
0.94939
0.949533
0.949245
0.948416
0.946988
0.945009
0.94269
0.940481
0.939267
0.939257
11891.7
19881.7
22517.6
20587.7
16555.3
15350.3
14257.9
12543.5
11683.8
10706.3
9506.09
8419.61
8106.13
6649.1
5520.35
4686.86
4425.68
4941.83
5505.16
5342.89
4612.32
4094.47
4036.79
3969.99
3956.37
4641.09
6314.39
9255.18
16332.5
25740.5
38507.7
50842.5
66762.6
84530.2
97092.4
103300
129628
124111
131811
137492
144818
134303
129386
121545
85761
24702.5
6665.63
848.636
122.4
19.4524
4.24095
1.98909
1.48369
1.25209
1.12225
1.04196
1.00986
0.991567
0.979652
0.971468
0.965758
0.961604
0.958194
0.954928
0.951403
0.947315
0.942784
0.938178
0.934003
0.930868
0.929222
0.929167
0.930434
0.932501
0.934808
0.936966
0.938738
0.940107
0.941129
0.941918
0.942575
0.943181
0.943783
0.944413
0.945079
0.945786
0.946525
0.947279
0.948007
0.948639
0.949079
0.949212
0.948912
0.948072
0.946635
0.944647
0.94232
0.940104
0.938879
0.938861
3149.95
17420.4
20387.9
20012.2
17407.3
17552.8
15432.7
14275.3
13892.5
13798.3
12304
12346.8
10960.4
10415.1
7899.78
6324.19
5781.81
5319.37
5846.52
5279.54
4671.94
4567.96
4107.39
4017.57
4298.7
5528.21
8068.29
12911.5
21639.4
34211.6
50273.9
64681.3
81725
94837.3
115094
116960
131665
136277
143700
150848
153666
146120
138757
136295
86615.3
19412.8
4038.24
588.854
95.1303
15.5253
3.61028
1.81911
1.38559
1.19123
1.08463
1.03434
1.00845
0.991128
0.979402
0.971287
0.965617
0.96149
0.9581
0.954846
0.951328
0.947245
0.942714
0.938109
0.933933
0.930795
0.929147
0.929089
0.930352
0.932415
0.934716
0.936869
0.938636
0.939999
0.941015
0.941799
0.942452
0.943053
0.943652
0.944277
0.944939
0.945642
0.946378
0.947129
0.947853
0.948481
0.948915
0.949041
0.948735
0.94789
0.946448
0.944457
0.942127
0.939907
0.938676
0.938652
741.531
11348.1
15448
16542.5
16264.6
16606.4
16405.8
16248
16826.5
17768.1
18420.1
20081.7
22045.6
21821.9
14979.6
11214.7
8649.45
6931.41
6149.79
5871.75
5065.97
4688.48
4403.18
4372.01
5022.46
7385.36
11737.5
20271.7
31097.6
45285.1
65349.5
79879.9
95257.2
110216
123988
128633
141487
146077
159411
161470
164541
164942
149988
147156
86216.6
16740.3
2966.43
479.882
81.0556
13.0433
3.14461
1.6801
1.31809
1.15654
1.06985
1.0311
1.00748
0.990747
0.979192
0.971148
0.965519
0.961418
0.958045
0.954802
0.951292
0.947213
0.942682
0.938078
0.933902
0.930762
0.929114
0.929055
0.930317
0.932377
0.934676
0.936826
0.93859
0.93995
0.940963
0.941744
0.942394
0.942993
0.94359
0.944212
0.944872
0.945573
0.946307
0.947056
0.947778
0.948402
0.948834
0.948956
0.948647
0.947799
0.946355
0.944363
0.94203
0.939809
0.938576
0.938549
264.463
5400.8
9486.28
11961.2
13902
15643.7
16853.6
17770.7
19721.5
23048.6
28326.4
35973
42769.8
42190
33222.5
24668.1
16273.6
11422
8722.16
7766.48
6490.18
6155.74
5397.6
5370.83
6555.76
10458.1
18197
28896
44224.7
60029.4
78407.4
92951.4
108932
120038
133151
140101
151718
157891
167348
168665
171827
192549
157869
150596
82634.3
15648.8
2571.72
432.732
71.6447
11.3267
2.83259
1.59752
1.28311
1.14157
1.06536
1.02947
1.00669
0.990388
0.978996
0.971025
0.965438
0.961365
0.958008
0.954776
0.951273
0.947198
0.94267
0.938066
0.933889
0.93075
0.929101
0.929043
0.930305
0.932364
0.934663
0.936812
0.938574
0.939932
0.940943
0.941722
0.942371
0.942969
0.943564
0.944185
0.944844
0.945543
0.946276
0.947024
0.947744
0.948367
0.948796
0.948916
0.948606
0.947756
0.946312
0.944319
0.941986
0.939765
0.938532
0.938503
148.673
2001.97
4512.99
7199.43
10386.8
13418.1
15553.5
17680.1
21785.7
29139.2
40314.2
54616.5
66199.3
69208.7
61985.5
48663.7
33297.1
23939
15352.3
11305.2
10105.1
8654.28
7799.15
8038.57
10592.8
17663.2
31737.7
42330.2
57763.8
76966.7
94284.5
106164
124224
131601
144230
149268
160593
158720
175722
174264
180769
184237
161325
148040
81359.6
13593
2247.7
385.164
62.8748
10.0428
2.65389
1.56704
1.26963
1.13521
1.0635
1.02838
1.00598
0.990041
0.978804
0.970906
0.965366
0.961319
0.957979
0.954758
0.951263
0.947194
0.942667
0.938065
0.933888
0.930749
0.9291
0.929042
0.930306
0.932366
0.934664
0.936812
0.938574
0.939931
0.940941
0.941718
0.942366
0.942962
0.943557
0.944177
0.944835
0.945534
0.946266
0.947013
0.947731
0.948353
0.948781
0.9489
0.948589
0.947739
0.946295
0.944302
0.941969
0.939748
0.938516
0.938486
101.357
689.257
1760.89
3442.6
6280.69
9586.9
12351.3
16017.4
22892.3
33879.8
47862.4
62695.3
74865.9
82914.6
84443.7
74597.7
57496.1
41916.3
28839.4
23456.3
20657.3
15290.3
14118
14385.3
20632.5
30246.6
46208.6
58573.6
73608.8
90514.5
112478
118719
138878
142599
157830
156695
171290
176194
182262
180763
188851
187991
168260
137476
60573.6
10577.7
1853.14
326.103
53.3042
8.88684
2.56415
1.57295
1.27096
1.13229
1.06194
1.02753
1.00543
0.989708
0.97861
0.970787
0.965294
0.961275
0.957954
0.954744
0.951257
0.947193
0.942669
0.938068
0.93389
0.930752
0.929104
0.929048
0.930312
0.932373
0.934671
0.93682
0.93858
0.939937
0.940946
0.941723
0.942369
0.942965
0.943558
0.944178
0.944835
0.945534
0.946266
0.947011
0.947729
0.94835
0.948777
0.948895
0.948583
0.947733
0.946289
0.944296
0.941963
0.939744
0.938514
0.938483
74.8963
275.019
667.261
1429.17
3100.46
5652.93
8634.59
13486.8
21881
32723.1
44502.5
56066.1
67213.4
78697.1
89051.7
89872.1
79623.9
64299.3
49497.3
41592.5
34265
28141.8
25235.4
25383.2
31434.3
48628.7
70775.7
77349
90237.1
103791
119943
134106
149165
149341
159995
160958
169718
179054
185463
187331
196980
196580
173814
125436
45118.5
8014.57
1475.58
265.083
43.5896
7.79304
2.52114
1.5939
1.27467
1.1305
1.06057
1.02697
1.00528
0.989416
0.978414
0.970665
0.965222
0.961232
0.957929
0.954731
0.951253
0.947195
0.942674
0.938074
0.933896
0.930759
0.929111
0.929056
0.930322
0.932384
0.934683
0.936831
0.938591
0.939947
0.940956
0.941731
0.942377
0.942971
0.943564
0.944183
0.944841
0.945539
0.94627
0.947015
0.947732
0.948351
0.948777
0.948895
0.948583
0.947733
0.946289
0.944297
0.941964
0.939746
0.938519
0.938487
60.2066
147.389
303.024
619.487
1418.53
3028.75
5678.76
10386.4
17588.9
25438.6
33557.4
42450.5
52817.2
65518.7
80472.9
91451.5
92276.2
83785.1
72630.4
63391
55479
46801
42965.6
42900
49073.4
68785.9
88784.8
96204.3
107043
116972
127658
168609
152989
155693
161786
164021
179349
182651
189287
193003
202668
208298
174687
109905
32705.6
5963.94
1146.29
208.893
34.4237
6.65411
2.42901
1.57634
1.26812
1.1288
1.06129
1.02823
1.00566
0.989159
0.978209
0.970536
0.965146
0.961186
0.957903
0.954718
0.951249
0.947196
0.942678
0.93808
0.933902
0.930765
0.929119
0.929065
0.930333
0.932396
0.934696
0.936844
0.938604
0.939959
0.940967
0.941742
0.942386
0.94298
0.943572
0.944191
0.944848
0.945546
0.946277
0.947021
0.947737
0.948355
0.948781
0.948898
0.948585
0.947735
0.946292
0.9443
0.941968
0.939751
0.938526
0.938494
54.4717
107.491
190.636
346.665
753.615
1757.02
3778.84
7256.16
11937.5
16872.6
22439.6
29603.3
39019.7
51433.5
67251.4
83914
94451.9
95914.5
91285.4
84149.2
75907.4
66972.5
63375.1
63864.2
71068.9
93192.9
108856
112606
121655
127169
134848
144993
153411
159845
163344
166688
176629
184522
193104
198329
209018
212153
170630
89584.7
24153.4
4457.9
880.25
160.094
26.65
5.62274
2.26989
1.5184
1.25401
1.12726
1.06329
1.02909
1.00454
0.988715
0.977981
0.970401
0.965063
0.961137
0.957874
0.954703
0.951243
0.947197
0.942682
0.938086
0.933908
0.930772
0.929127
0.929075
0.930344
0.932408
0.93471
0.936858
0.938618
0.939972
0.94098
0.941753
0.942397
0.94299
0.943582
0.9442
0.944857
0.945555
0.946285
0.947029
0.947744
0.948361
0.948786
0.948903
0.94859
0.94774
0.946296
0.944305
0.941973
0.939757
0.938535
0.938502
58.2893
107.217
173.765
286.644
562.203
1265.01
2667.53
4793.82
7444.43
10445.4
14442
20239
28429.7
39711.3
54673.7
72731
89213.2
99158.3
102250
100362
94148.5
86803.4
89545.7
86473.6
96354.4
111319
123102
125321
131155
133533
138579
145370
153877
162040
163640
168090
177120
186217
196266
203315
215792
215884
160047
80900.5
17993.8
3326.48
667.635
120.245
20.5297
4.80708
2.10607
1.47027
1.24016
1.12325
1.06079
1.02559
1.00321
0.988251
0.977746
0.970262
0.964979
0.961087
0.957845
0.95469
0.95124
0.947201
0.942688
0.938094
0.933916
0.930781
0.929136
0.929086
0.930357
0.932423
0.934725
0.936874
0.938633
0.939987
0.940994
0.941767
0.942409
0.943002
0.943593
0.944211
0.944868
0.945565
0.946295
0.947038
0.947752
0.948368
0.948792
0.948909
0.948596
0.947746
0.946303
0.944312
0.94198
0.939766
0.938545
0.93851
77.4343
146.059
224.097
340.045
583.056
1114.23
2001.71
3166.88
4618.06
6514.45
9450.76
14055
20922.7
30758.3
44234.7
61440.5
80216.6
95579.9
105555
108491
106473
101845
100603
104296
118397
127507
135522
131077
133488
135845
139795
144721
152461
160415
163686
169186
177765
187530
198301
207283
226480
218779
147907
65892.2
13967.8
2505.62
499.472
89.3324
15.9257
4.14432
1.9748
1.43509
1.22737
1.11761
1.05693
1.02305
1.00224
0.987833
0.977521
0.970131
0.964902
0.961045
0.957826
0.954686
0.951245
0.947212
0.942702
0.938108
0.933931
0.930796
0.929152
0.929104
0.930375
0.932443
0.934745
0.936894
0.938653
0.940006
0.941012
0.941784
0.942425
0.943016
0.943606
0.944223
0.94488
0.945577
0.946307
0.947049
0.947762
0.948378
0.948801
0.948917
0.948603
0.947754
0.946311
0.94432
0.941989
0.939776
0.938555
0.938519
126.849
239.722
347.344
479.239
692.948
1050.87
1538.36
2150.22
2992.46
4275.47
6445.4
10024.6
15616.5
23941.3
35752.6
51407
70134
88081.1
102462
110586
111642
110555
113506
121704
136589
137878
142524
132805
133801
135207
139208
143005
150596
158278
162894
169248
177963
188277
199096
212518
245852
217827
137392
71092.5
10683
1851.73
368.705
66.3854
12.5574
3.61285
1.86504
1.4066
1.21603
1.11209
1.05388
1.02151
1.00152
0.987448
0.977302
0.970003
0.964829
0.961007
0.957812
0.954689
0.951257
0.947229
0.942721
0.938128
0.93395
0.930815
0.929171
0.929124
0.930397
0.932465
0.934768
0.936917
0.938675
0.940027
0.941031
0.941802
0.942442
0.943032
0.943621
0.944237
0.944894
0.94559
0.94632
0.947061
0.947774
0.948388
0.948811
0.948927
0.948613
0.947763
0.946321
0.944331
0.942
0.939787
0.938566
0.938527
236.511
379.378
489.714
602.341
733.044
909.316
1150.21
1504.8
2063.77
2995.66
4602.07
7329.77
11753.7
18595
28675.3
42565.5
60128.2
78796.4
95502.5
107168
112435
115545
120494
129081
137321
142065
146154
131662
131145
132044
132615
140691
148324
156042
161478
168457
177425
188223
198543
212368
230582
212439
130809
83386.7
8146.34
1354.61
272.145
50.0595
10.1685
3.2322
1.78405
1.38479
1.20661
1.10748
1.05159
1.02036
1.00081
0.987032
0.977043
0.969842
0.964724
0.960943
0.957774
0.954669
0.951248
0.947226
0.942723
0.938131
0.933954
0.93082
0.929179
0.929133
0.930409
0.932479
0.934784
0.936933
0.938691
0.940043
0.941047
0.941816
0.942455
0.943045
0.943634
0.94425
0.944907
0.945604
0.946333
0.947074
0.947786
0.9484
0.948822
0.948938
0.948624
0.947775
0.946332
0.944343
0.942012
0.939799
0.938576
0.938534
453.249
439
442.805
485.957
548.864
650.9
820.482
1092.07
1530.26
2238.61
3441.81
5489.72
8892.21
14320.4
22620.3
34563.4
50425.6
68815.2
86530
100369
108597
114329
120088
128011
127151
148027
135154
125586
125742
127232
138650
138326
145807
153634
159489
166860
175941
187045
196399
208698
222735
206470
122888
62599
5917.56
998.444
203.952
38.6739
8.46928
2.97709
1.74599
1.37232
1.19907
1.10346
1.04964
1.01928
1.00007
0.986563
0.97673
0.969637
0.964581
0.960849
0.957708
0.954626
0.951216
0.947203
0.942706
0.938115
0.933941
0.93081
0.929172
0.92913
0.93041
0.932483
0.934791
0.936942
0.938702
0.940054
0.941058
0.941827
0.942467
0.943056
0.943646
0.944263
0.94492
0.945617
0.946347
0.947087
0.947799
0.948412
0.948834
0.948949
0.948636
0.947787
0.946345
0.944355
0.942025
0.939811
0.938585
0.938541
52.1092
93.5785
123.632
165.043
236.241
352.419
523.098
766.509
1120.89
1659.99
2536.7
4007.87
6458.53
10437.5
16630.4
25777.3
38367.6
54253
71035.1
85415.8
95555.9
103203
109243
114261
118279
120536
115434
112311
113751
117804
125892
132566
141313
149143
155327
162867
171695
182723
189136
196690
204234
185132
121421
22049.3
2929.66
577.995
120.211
24.0668
6.12232
2.58188
1.67033
1.34222
1.18513
1.09693
1.0466
1.01756
0.998976
0.985872
0.976289
0.969361
0.96441
0.96075
0.957665
0.954615
0.951217
0.947217
0.942724
0.938135
0.933961
0.93083
0.929194
0.929156
0.930439
0.932516
0.934825
0.936976
0.938737
0.940088
0.94109
0.941857
0.942495
0.943083
0.943671
0.944288
0.944944
0.945641
0.946371
0.94711
0.947821
0.948433
0.948854
0.948969
0.948655
0.947806
0.946364
0.944375
0.942045
0.939831
0.938599
0.93855
5.84394
13.4881
27.219
57.7714
119.98
225.371
378.602
587.246
871.727
1275.45
1884.85
2854.69
4427.86
6988.07
11058.6
17207.3
25871.4
37091.2
50018.7
62201.8
71539.3
78604.3
83816.3
88094
92897.9
94710.4
93414.7
93868.4
97835.5
105434
115263
125212
134337
141578
147066
153699
161123
170624
170241
166719
171328
150448
69253.2
8640.75
1560.72
330.682
69.519
14.9215
4.46204
2.21548
1.56116
1.3031
1.16809
1.08905
1.04282
1.01537
0.997592
0.984983
0.975727
0.969008
0.964201
0.960632
0.957618
0.954606
0.951229
0.947246
0.942759
0.938171
0.933998
0.930867
0.929233
0.929199
0.930487
0.932567
0.934877
0.93703
0.938789
0.940138
0.941137
0.941901
0.942536
0.943121
0.943707
0.944322
0.944977
0.945674
0.946402
0.94714
0.947848
0.948457
0.948876
0.948989
0.948675
0.947825
0.946384
0.944396
0.942066
0.939854
0.93862
0.938566
1.34139
5.23803
16.1569
42.9714
97.1558
187.285
316.977
491.044
722.505
1037.9
1486.36
2152.35
3174.79
4777.03
7297.94
11109.3
16510.8
23556.9
31946.4
40726
48367.4
54569.5
59534.6
64158.4
69125.2
73169.8
75414.8
79016.6
85845.4
96032.4
107543
118384
126903
131936
135472
140466
146212
152000
142902
125779
110631
103459
22336.8
4383.05
852.349
184.169
39.672
9.57376
3.45764
1.97853
1.48475
1.27129
1.15284
1.08161
1.03897
1.01308
0.996099
0.984009
0.975095
0.968603
0.963945
0.960475
0.957521
0.954552
0.951206
0.94724
0.942765
0.938181
0.934009
0.93088
0.929251
0.929223
0.930516
0.932602
0.934914
0.937068
0.938827
0.940174
0.941171
0.941933
0.942565
0.943148
0.943732
0.944346
0.945001
0.945697
0.946423
0.947159
0.947864
0.948471
0.948887
0.948998
0.948682
0.947832
0.946392
0.944405
0.942078
0.939871
0.938641
0.938584
0.88238
3.96762
14.0808
39.1362
87.8634
166.029
276.325
422.888
616.646
876.431
1232.94
1734.83
2456.54
3525.1
5124.39
7474.7
10742.3
14976.7
20054
25718.8
31519
36911.1
41842.8
46827.2
52212.5
57364.6
62343.9
68763.5
77887.1
89511.9
101394
111336
117339
119045
119976
122771
126000
125596
108327
78467.8
59018.8
59451.1
11839.5
2179.04
444.403
99.0101
22.6973
6.49309
2.83874
1.81523
1.42563
1.24324
1.13828
1.07409
1.03492
1.01065
0.994526
0.982976
0.97442
0.968166
0.963667
0.960302
0.957415
0.954493
0.951181
0.947235
0.942771
0.938191
0.934022
0.930894
0.929269
0.929247
0.930547
0.932637
0.934953
0.937107
0.938865
0.94021
0.941205
0.941963
0.942593
0.943173
0.943755
0.944367
0.945021
0.945715
0.94644
0.947173
0.947875
0.948478
0.948891
0.949
0.948682
0.947832
0.946391
0.944407
0.942083
0.939883
0.93866
0.938604
0.767945
3.30083
12.1302
34.0571
76.0403
142.475
235.871
360.724
527.054
751.272
1056.05
1472.27
2046.37
2850.97
4002.87
5619.48
7800.61
10579.6
13930.6
17796
22121.2
26691
31355.2
36332.7
41881.1
47836.8
54385.9
62539.1
72815.3
84495.1
95084.6
102363
104389
102408
100909
102526
99010.4
91344.1
73530.1
42624.5
32694.1
20241.8
4966.32
1015.76
220.802
51.8191
13.4226
4.69252
2.4257
1.68947
1.37447
1.21739
1.12441
1.06664
1.03079
1.00814
0.992901
0.981898
0.973705
0.967697
0.963366
0.960111
0.957297
0.954426
0.951149
0.947225
0.942774
0.938199
0.934031
0.930905
0.929285
0.92927
0.930577
0.932673
0.934992
0.937147
0.938904
0.940247
0.941238
0.941993
0.942619
0.943196
0.943775
0.944386
0.945039
0.945732
0.946455
0.947185
0.947882
0.948482
0.948891
0.948997
0.948678
0.947827
0.946386
0.944404
0.942084
0.939892
0.93868
0.938626
0.715205
2.65015
9.4483
26.6032
59.8056
113.271
190.252
296.09
441.067
640.958
915.912
1290.17
1798.45
2493.04
3459.89
4778.61
6504.96
8656.85
11233.1
14236.1
17695.3
21607.5
25892.8
30666.3
36179.6
42522.3
49856.1
58724.6
68932.4
79206.6
86945.4
89885
87809
82581.3
80311.7
78589.8
69127.7
57245.6
47231.3
23455.7
16111.3
8155.15
2069.81
454.199
106.525
27.2503
8.38167
3.58118
2.13068
1.58559
1.32839
1.19332
1.11118
1.05933
1.02661
1.00558
0.991228
0.980775
0.972952
0.967198
0.963042
0.959904
0.957167
0.954351
0.951111
0.947212
0.942774
0.938203
0.934037
0.930914
0.929299
0.929292
0.930608
0.93271
0.935032
0.937187
0.938943
0.940284