/*--------------------------------*- C++ -*----------------------------------*\
  =========                 |
  \\      /  F ield         | OpenFOAM: The Open Source CFD Toolbox
   \\    /   O peration     | Website:  https://openfoam.org
    \\  /    A nd           | Version:  6
     \\/     M anipulation  |
\*---------------------------------------------------------------------------*/
FoamFile
{
    version     2.0;
    format      ascii;
    class       volScalarField;
    location    "0.005";
    object      H;
}
// * * * * * * * * * * * * * * * * * * * * * * * * * * * * * * * * * * * * * //

dimensions      [0 0 0 0 0 0 0];

internalField   nonuniform List<scalar> 
8000
(
2.54806e-25
1.3557e-20
1.05558e-19
1.61836e-18
4.03997e-17
1.11399e-15
2.01353e-14
1.87409e-13
9.30588e-13
3.00102e-12
7.35688e-12
1.49528e-11
2.75235e-11
4.09889e-11
4.3013e-11
4.18899e-11
5.86006e-11
1.40999e-10
5.1839e-10
3.31475e-09
4.02391e-08
7.9629e-07
1.17522e-05
1.46808e-05
3.64808e-05
5.23694e-05
4.76277e-05
4.7448e-05
5.17523e-05
5.47497e-05
5.36304e-05
4.58952e-05
3.08133e-05
1.82374e-05
9.64777e-06
6.03792e-06
4.10357e-06
3.17407e-06
2.48762e-06
2.11657e-06
2.05464e-06
2.05696e-06
2.20187e-06
3.61214e-06
1.69976e-05
5.84795e-05
1.84173e-05
9.98618e-06
3.82045e-06
9.35368e-08
7.61527e-10
3.3832e-11
1.03908e-12
0
0
0
0
0
0
0
0
0
0
0
0
0
0
0
0
0
0
0
0
0
0
0
0
0
0
0
0
0
0
0
0
0
0
0
0
0
0
0
0
0
0
0
0
0
0
0
7.62461e-24
2.96455e-19
7.59345e-19
8.5567e-18
1.27754e-16
3.04335e-15
6.13324e-14
7.57628e-13
4.87e-12
1.69844e-11
4.0258e-11
7.09918e-11
1.13075e-10
1.75553e-10
1.62098e-10
1.15589e-10
1.31326e-10
2.86231e-10
8.39889e-10
4.22224e-09
4.88483e-08
1.61613e-06
6.04187e-05
3.41071e-05
4.49793e-05
5.37275e-05
3.7897e-05
4.08215e-05
5.09237e-05
5.52187e-05
5.43297e-05
4.64823e-05
3.08897e-05
1.79509e-05
9.34288e-06
6.09912e-06
4.00587e-06
3.23391e-06
2.43534e-06
2.26503e-06
2.10875e-06
2.01095e-06
2.16021e-06
3.54698e-06
1.63846e-05
5.99716e-05
1.94859e-05
8.17266e-06
4.48095e-06
1.27517e-07
3.70294e-10
7.40279e-12
5.34984e-13
0
0
0
0
0
0
0
0
0
0
0
0
0
0
0
0
0
0
0
0
0
0
0
0
0
0
0
0
0
0
0
0
0
0
0
0
0
0
0
0
0
0
0
0
0
0
0
4.54876e-20
2.40087e-12
1.66536e-19
5.17517e-12
9.56754e-16
1.46776e-14
2.60751e-13
4.96142e-12
4.25677e-11
2.2503e-10
5.22236e-10
7.48407e-10
8.55971e-10
1.3638e-09
2.73103e-10
1.78201e-10
4.61679e-10
1.11079e-09
2.47852e-09
7.03211e-09
4.01714e-08
5.23552e-07
1.32367e-05
1.14837e-05
2.67516e-05
5.11249e-05
1.14168e-05
3.39477e-05
5.05379e-05
5.59778e-05
5.57233e-05
4.74004e-05
3.07085e-05
1.72657e-05
8.6603e-06
5.48901e-06
3.90306e-06
3.07651e-06
2.432e-06
2.15443e-06
2.00808e-06
2.00505e-06
2.16066e-06
3.52862e-06
1.4087e-05
6.15784e-05
2.05343e-05
4.94331e-06
3.98179e-08
3.90254e-08
4.86505e-10
2.63438e-11
8.75703e-14
0
0
0
0
0
0
0
0
0
0
0
0
0
0
0
0
0
0
0
0
0
0
0
0
0
0
0
0
0
0
0
0
0
0
0
0
0
0
0
0
0
0
0
0
0
0
0
7.22331e-24
5.58366e-18
3.53084e-16
5.25784e-15
3.37673e-14
1.15892e-13
9.06404e-13
1.38644e-11
2.13402e-10
2.57819e-10
9.87845e-09
1.17149e-08
1.0108e-08
3.88871e-10
9.23226e-10
6.81499e-10
1.33299e-09
7.61562e-09
9.61716e-10
1.97512e-08
5.95482e-08
3.39338e-08
2.71488e-06
5.43966e-06
1.60956e-05
3.90466e-05
4.93774e-05
5.25545e-05
5.49685e-05
7.60293e-05
5.63205e-05
4.69277e-05
2.95794e-05
1.6241e-05
7.5817e-06
4.75317e-06
3.67535e-06
2.81578e-06
2.27223e-06
2.1037e-06
1.88459e-06
1.87539e-06
2.03309e-06
3.34056e-06
1.30871e-05
6.03164e-05
1.32618e-05
1.63431e-06
2.17671e-07
5.96546e-09
2.24469e-10
1.59194e-11
7.66541e-15
0
0
0
0
0
0
0
0
0
0
0
0
0
0
0
0
0
0
0
0
0
0
0
0
0
0
0
0
0
0
0
0
0
0
0
0
0
0
0
0
0
0
0
0
0
0
0
1.20503e-21
9.65482e-18
1.93317e-11
1.23083e-13
2.14998e-11
1.32028e-12
3.58431e-12
2.24669e-11
3.73592e-10
4.3746e-10
2.26337e-08
1.44642e-08
3.43566e-09
5.62187e-09
1.58119e-09
2.88732e-10
5.25731e-09
1.828e-09
5.74723e-08
7.5455e-08
2.54977e-08
5.07266e-08
1.52536e-06
1.91413e-06
9.22323e-06
3.21493e-05
5.3955e-05
3.14816e-05
4.82778e-05
5.78612e-05
5.63986e-05
4.49331e-05
2.77258e-05
1.39337e-05
6.74384e-06
3.99434e-06
3.35217e-06
2.69153e-06
2.39137e-06
1.93362e-06
1.74753e-06
1.74101e-06
2.00844e-06
3.22625e-06
1.20789e-05
5.91302e-05
1.03098e-05
6.76265e-07
3.94547e-08
1.53874e-09
8.55305e-11
3.34649e-12
0
0
0
0
0
0
0
0
0
0
0
0
0
0
0
0
0
0
0
0
0
0
0
0
0
0
0
0
0
0
0
0
0
0
0
0
0
0
0
0
0
0
0
0
0
0
0
0
4.22065e-20
1.52823e-18
2.8066e-14
1.46398e-11
1.1836e-11
2.31022e-11
7.96504e-12
2.27473e-11
1.49039e-10
1.38526e-09
9.80051e-09
1.05735e-08
4.66878e-09
1.72263e-09
1.53441e-09
4.20505e-09
2.31795e-08
2.1306e-08
4.71218e-07
1.13173e-07
4.76647e-07
1.21139e-07
1.76206e-06
2.5305e-06
2.20769e-05
3.31607e-05
4.55985e-05
6.42573e-05
7.14532e-05
5.67625e-05
5.65132e-05
4.16264e-05
3.86663e-05
1.30762e-05
6.47559e-06
4.14155e-06
3.09417e-06
2.68098e-06
2.20307e-06
1.75442e-06
1.60911e-06
1.61275e-06
1.63868e-06
3.00616e-06
1.09471e-05
5.80933e-05
1.12667e-05
5.05463e-07
1.58616e-08
7.56607e-10
2.71019e-11
1.96642e-12
0
0
0
0
0
0
0
0
0
0
0
0
0
0
0
0
0
0
0
0
0
0
0
0
0
0
0
0
0
0
0
0
0
0
0
0
0
0
0
0
0
0
0
0
0
0
0
0
3.88071e-20
2.12056e-17
4.07848e-15
7.75942e-14
5.76604e-13
2.16601e-12
2.1199e-11
4.7007e-11
1.6029e-10
3.98137e-10
1.58632e-10
2.27921e-10
2.02156e-10
1.50262e-09
3.43237e-09
1.40601e-08
5.96196e-08
4.03422e-07
2.98554e-06
1.82778e-06
9.05699e-07
1.52188e-06
1.0471e-06
1.05744e-05
9.60805e-05
5.03434e-05
4.16608e-05
4.47899e-05
4.81486e-05
5.44486e-05
5.35409e-05
4.07406e-05
2.3939e-05
1.20082e-05
6.15451e-06
4.08045e-06
2.96132e-06
2.56864e-06
2.05653e-06
1.17508e-06
1.48486e-06
1.49748e-06
1.85165e-06
2.87235e-06
9.68122e-06
5.62331e-05
1.42047e-05
6.62146e-07
1.46617e-08
4.4912e-10
1.79591e-11
3.32594e-12
0
0
0
0
0
0
0
0
0
0
0
0
0
0
0
0
0
0
0
0
0
0
0
0
0
0
0
0
0
0
0
0
0
0
0
0
0
0
0
0
0
0
0
0
0
0
0
0
2.27308e-12
3.98839e-12
3.6661e-15
9.01592e-14
5.92897e-13
1.8351e-11
4.17245e-11
4.11767e-10
2.58981e-10
1.04814e-09
8.9046e-10
9.28138e-10
1.40519e-09
5.6319e-09
7.87503e-10
1.92676e-09
1.67587e-08
2.92903e-07
1.41179e-05
6.80676e-06
4.28076e-06
4.29273e-06
3.48035e-06
1.27132e-05
3.60647e-05
3.3705e-05
3.11927e-05
3.63481e-05
4.66796e-05
5.40796e-05
4.60651e-05
3.19712e-05
1.88994e-05
1.03259e-05
5.59011e-06
3.60982e-06
2.88712e-06
2.37704e-06
1.95389e-06
1.54216e-06
1.38427e-06
1.38532e-06
1.79461e-06
2.88102e-06
8.3087e-06
5.29213e-05
1.76293e-05
2.17859e-08
1.40738e-08
8.50334e-15
3.75673e-17
2.07e-12
0
0
0
0
0
0
0
0
0
0
0
0
0
0
0
0
0
0
0
0
0
0
0
0
0
0
0
0
0
0
0
0
0
0
0
0
0
0
0
0
0
0
0
0
0
0
0
0
3.03983e-12
5.05058e-12
3.11186e-14
1.49027e-12
1.54807e-11
2.34333e-11
4.80436e-11
2.69027e-09
1.63776e-09
6.87308e-09
3.74417e-10
2.93678e-10
5.58774e-09
1.54216e-08
3.86306e-08
4.90447e-09
4.85938e-08
8.63129e-07
8.41987e-05
2.00111e-05
1.04931e-05
9.71252e-06
1.03346e-05
1.63469e-05
3.02045e-05
2.71928e-05
2.8655e-05
3.67434e-05
5.27805e-05
5.14225e-05
4.01112e-05
3.12274e-05
1.43776e-05
8.35157e-06
5.01986e-06
3.24977e-06
2.69124e-06
2.22899e-06
1.8965e-06
1.52228e-06
1.04993e-06
1.03729e-06
1.73498e-06
2.855e-06
1.47835e-05
7.73132e-05
1.91689e-05
6.48004e-07
9.35981e-09
8.41666e-11
1.4106e-11
1.33723e-12
0
0
0
0
0
0
0
0
0
0
0
0
0
0
0
0
0
0
0
0
0
0
0
0
0
0
0
0
0
0
0
0
0
0
0
0
0
0
0
0
0
0
0
0
0
0
0
0
1.70014e-20
1.07326e-11
9.49511e-12
2.28555e-11
1.31061e-11
3.67639e-11
4.45123e-10
2.48546e-09
1.08336e-08
3.96089e-09
1.62974e-08
2.86552e-08
9.94131e-09
1.76319e-08
5.91878e-08
3.60862e-08
5.61317e-07
5.76066e-06
5.37335e-05
3.02218e-05
2.14405e-05
2.60922e-05
2.22121e-05
2.65419e-05
2.86443e-05
2.84652e-05
3.25072e-05
4.06093e-05
5.1729e-05
6.3555e-05
3.16372e-05
1.82177e-05
1.61584e-05
6.70806e-06
4.16297e-06
2.4898e-06
2.42527e-06
2.11737e-06
1.88365e-06
1.55803e-06
1.175e-06
1.29267e-06
1.71216e-06
2.90888e-06
1.00281e-05
5.70252e-05
6.87743e-06
4.19317e-07
5.9951e-09
5.56962e-11
1.48104e-11
1.3377e-12
0
0
0
0
0
0
0
0
0
0
0
0
0
0
0
0
0
0
0
0
0
0
0
0
0
0
0
0
0
0
0
0
0
0
0
0
0
0
0
0
0
0
0
0
0
0
0
0
5.72113e-12
6.62613e-14
1.63305e-12
1.56372e-11
1.25373e-10
9.30568e-11
2.49823e-10
4.46671e-09
6.18185e-08
1.0009e-07
1.73188e-07
1.49891e-07
3.72962e-07
1.08008e-07
5.03537e-07
5.7746e-07
1.07469e-06
2.97617e-06
5.9656e-05
8.38019e-05
3.53629e-05
4.78877e-05
3.661e-05
5.75731e-05
4.73669e-05
3.67042e-05
4.12858e-05
4.65463e-05
4.99249e-05
4.23022e-05
2.79388e-05
1.56617e-05
9.00312e-06
5.69599e-06
3.82891e-06
2.51831e-06
2.24384e-06
2.10904e-06
1.91556e-06
1.63653e-06
1.40557e-06
1.29893e-06
1.69966e-06
2.93592e-06
1.14493e-05
5.93068e-05
1.16137e-05
2.6901e-07
3.99923e-09
2.55728e-16
1.07361e-11
1.34717e-12
0
0
0
0
0
0
0
0
0
0
0
0
0
0
0
0
0
0
0
0
0
0
0
0
0
0
0
0
0
0
0
0
0
0
0
0
0
0
0
0
0
0
0
0
0
0
0
0
1.59488e-15
1.06752e-11
2.38215e-10
1.09226e-10
7.95656e-09
5.06326e-09
1.11414e-08
2.4159e-07
2.4481e-06
2.40038e-06
2.54251e-06
2.65411e-06
3.49853e-06
2.23713e-06
2.29703e-06
2.28298e-06
3.42411e-06
6.09182e-06
5.54034e-05
5.9608e-05
4.24315e-05
4.40752e-05
4.8794e-05
5.36891e-05
4.7234e-05
4.36183e-05
4.78007e-05
6.47088e-05
4.48635e-05
4.01945e-05
1.99242e-05
1.24482e-05
7.09699e-06
4.90926e-06
3.57964e-06
2.94547e-06
2.25392e-06
2.0814e-06
1.9977e-06
1.74255e-06
1.50508e-06
1.29741e-06
1.72708e-06
3.1439e-06
1.34875e-05
8.52184e-05
2.64187e-06
7.17991e-10
2.76245e-09
4.38007e-11
1.46402e-17
1.62749e-12
1.12775e-13
0
0
0
0
0
0
0
0
0
0
0
0
0
0
0
0
0
0
0
0
0
0
0
0
0
0
0
0
0
0
0
0
0
0
0
0
0
0
0
0
0
0
0
0
0
0
0
7.91299e-13
6.30113e-09
5.84204e-08
3.19381e-08
2.98208e-07
7.67391e-07
1.41799e-06
2.64504e-06
4.84292e-05
2.89836e-05
1.44236e-05
1.26116e-05
1.31581e-05
9.27264e-06
8.8269e-06
8.25905e-06
9.40142e-06
1.97944e-05
4.00324e-05
6.32755e-05
5.32713e-05
5.24161e-05
5.49104e-05
6.94338e-05
5.03021e-05
4.77338e-05
4.84013e-05
6.13846e-05
3.70484e-05
2.2681e-05
1.46195e-05
8.72342e-06
5.80972e-06
4.26024e-06
3.5227e-06
3.06108e-06
2.74453e-06
2.72648e-06
2.1284e-06
1.86811e-06
1.61089e-06
1.4573e-06
1.89379e-06
3.46866e-06
1.64271e-05
7.68539e-05
5.67564e-06
3.13696e-10
2.08142e-09
7.72183e-11
5.89805e-12
1.65717e-12
1.0243e-12
1.88284e-13
0
0
0
0
0
0
0
0
0
0
0
0
0
0
0
0
0
0
0
0
0
0
0
0
0
0
0
0
0
0
0
0
0
0
0
0
0
0
0
0
0
0
0
0
0
0
1.34148e-09
4.949e-06
5.94527e-06
6.42386e-06
1.03968e-05
3.30342e-05
1.24341e-05
1.5996e-05
3.61152e-05
3.24636e-05
2.9639e-05
2.72846e-05
2.68366e-05
2.55838e-05
2.27065e-05
2.01039e-05
2.46266e-05
4.87386e-05
5.12953e-05
7.62132e-05
6.45565e-05
5.70298e-05
5.54395e-05
5.29323e-05
6.47044e-05
4.81261e-05
5.99232e-05
4.16608e-05
2.87819e-05
1.49819e-05
9.69904e-06
6.52736e-06
4.60475e-06
4.11469e-06
3.68249e-06
3.49894e-06
3.07135e-06
3.6992e-06
2.33076e-06
2.01861e-06
1.7354e-06
1.42354e-06
1.8673e-06
3.87926e-06
2.20925e-05
4.57224e-05
3.76376e-06
5.11617e-08
1.46011e-09
5.84974e-11
4.09744e-12
1.7058e-12
1.35225e-12
1.00988e-12
1.16671e-13
0
0
0
0
0
0
0
0
0
0
0
0
0
0
0
0
0
0
0
0
0
0
0
0
0
0
0
0
0
0
0
0
0
0
0
0
0
0
0
0
0
0
0
0
0
1.22335e-07
2.20046e-05
6.43152e-05
6.46855e-05
4.33879e-05
7.35634e-05
4.05628e-05
5.88185e-05
7.08642e-05
4.78143e-05
5.04634e-05
4.32499e-05
5.52204e-05
4.58513e-05
6.55843e-05
4.07923e-05
3.70306e-05
4.11278e-05
5.49577e-05
8.09675e-05
6.6498e-05
7.40573e-05
5.41106e-05
5.04324e-05
4.65555e-05
4.90804e-05
4.01743e-05
3.12615e-05
1.88991e-05
7.83024e-06
6.6546e-06
5.22984e-06
4.42606e-06
4.93557e-06
5.57524e-06
5.84623e-06
4.20867e-06
3.71911e-06
4.09495e-06
2.22173e-06
2.72987e-06
1.51862e-06
2.54353e-06
7.06334e-06
2.74832e-05
4.15569e-05
2.26338e-06
2.91303e-08
1.05291e-09
2.04305e-11
3.51232e-12
1.68133e-12
1.44225e-12
1.19521e-12
7.33265e-13
0
0
0
0
0
0
0
0
0
0
0
0
0
0
0
0
0
0
0
0
0
0
0
0
0
0
0
0
0
0
0
0
0
0
0
0
0
0
0
0
0
0
0
0
0
5.73952e-05
7.05477e-05
5.82166e-05
1.21525e-05
4.462e-05
7.78263e-05
6.0203e-05
6.2057e-05
6.74905e-05
3.4626e-05
1.27912e-05
1.96031e-05
3.50871e-05
5.01997e-05
5.66336e-05
5.35118e-05
4.92116e-05
5.00055e-05
6.05139e-05
8.21721e-05
5.87778e-05
5.62363e-05
5.08383e-05
4.32849e-05
4.38347e-05
3.04678e-05
2.70358e-05
1.93554e-05
1.28872e-05
7.76259e-06
6.79352e-06
5.46318e-06
4.74653e-06
5.07918e-06
5.38669e-06
8.07182e-06
8.43418e-06
4.98616e-06
5.64362e-06
4.12196e-06
2.22397e-06
2.31243e-06
3.22433e-06
5.71151e-06
3.63715e-05
2.34149e-05
1.15472e-06
1.50928e-08
6.46699e-10
1.8074e-11
3.02473e-12
1.4783e-12
1.31168e-12
1.24568e-12
1.11105e-12
0
0
0
0
0
0
0
0
0
0
0
0
0
0
0
0
0
0
0
0
0
0
0
0
0
0
0
0
0
0
0
0
0
0
0
0
0
0
0
0
0
0
0
0
0
6.1384e-05
7.61183e-05
6.83536e-05
3.27796e-05
1.66035e-05
4.81755e-05
6.46605e-05
6.30195e-05
4.59488e-05
8.37278e-06
7.75268e-06
2.30113e-06
8.75476e-06
2.62914e-05
4.9895e-05
5.89279e-05
6.00288e-05
5.95239e-05
6.21931e-05
6.09256e-05
5.84736e-05
5.3724e-05
4.66438e-05
4.39111e-05
3.23247e-05
2.15143e-05
2.43633e-05
1.64358e-05
1.2954e-05
1.04434e-05
6.49062e-06
5.99488e-06
6.18041e-06
6.92336e-06
1.11064e-05
1.24505e-05
1.24225e-05
7.16929e-06
5.42378e-06
5.24528e-06
4.05724e-06
2.18398e-06
4.56033e-06
8.42194e-06
6.31845e-05
9.43403e-06
4.6479e-08
8.08308e-09
3.50517e-10
1.51781e-11
2.0019e-12
4.17622e-13
9.66852e-14
1.81626e-13
3.69674e-14
0
0
0
0
0
0
0
0
0
0
0
0
0
0
0
0
0
0
0
0
0
0
0
0
0
0
0
0
0
0
0
0
0
0
0
0
0
0
0
0
0
0
0
0
0
9.32545e-05
0.000100367
7.49611e-05
5.23434e-05
2.09027e-05
5.70567e-05
6.15541e-05
6.18151e-05
4.33004e-05
1.75691e-05
7.22685e-06
3.57133e-06
4.17403e-06
1.52112e-05
3.16281e-05
5.1532e-05
8.74227e-05
6.11159e-05
8.50622e-05
5.91531e-05
5.62616e-05
7.42512e-05
4.55144e-05
3.51564e-05
2.7405e-05
2.30938e-05
2.05429e-05
1.6268e-05
1.34125e-05
1.03579e-05
7.59439e-06
1.01749e-05
1.13316e-05
9.05072e-06
1.62224e-05
1.12512e-05
1.08164e-05
8.85324e-06
6.76568e-06
4.86887e-06
5.04961e-06
4.26155e-06
4.50665e-06
1.17615e-05
7.15871e-05
4.06241e-06
2.50538e-07
4.1994e-09
1.61651e-10
5.78648e-12
3.88446e-13
0
0
0
0
0
0
0
0
0
0
0
0
0
0
0
0
0
0
0
0
0
0
0
0
0
0
0
0
0
0
0
0
0
0
0
0
0
0
0
0
0
0
0
0
0
0
0
0
0
0.000103006
0.00011203
9.1104e-05
6.78955e-05
5.02766e-05
5.57983e-05
6.41899e-05
6.29549e-05
4.92444e-05
3.42471e-05
2.45594e-05
2.38176e-05
3.89628e-05
5.94103e-05
4.40894e-05
5.08852e-05
5.45483e-05
5.59046e-05
5.42179e-05
5.44652e-05
5.09775e-05
4.70157e-05
4.46989e-05
3.97016e-05
3.07521e-05
3.19343e-05
2.14429e-05
3.47838e-05
1.78586e-05
1.29863e-05
1.80621e-05
1.74173e-05
1.10504e-05
1.87269e-05
2.3198e-05
1.59662e-05
1.53618e-05
1.31857e-05
1.35198e-05
5.96469e-06
6.67276e-06
3.80453e-06
6.28435e-06
2.67702e-05
7.13585e-05
4.98907e-06
1.03117e-07
2.25053e-09
1.07082e-10
3.44832e-12
9.26591e-17
0
0
0
0
0
0
0
0
0
0
0
0
0
0
0
0
0
0
0
0
0
0
0
0
0
0
0
0
0
0
0
0
0
0
0
0
0
0
0
0
0
0
0
0
0
0
0
0
0
0.000105947
0.000110675
0.000117735
0.000101054
7.3894e-05
6.7194e-05
6.79706e-05
6.61373e-05
6.12986e-05
5.46896e-05
5.13297e-05
4.9617e-05
5.0158e-05
5.27931e-05
7.05109e-05
5.9761e-05
5.12656e-05
4.77709e-05
4.89338e-05
7.15839e-05
4.67685e-05
7.04264e-05
4.5282e-05
4.22058e-05
3.67923e-05
2.82141e-05
2.51672e-05
2.40592e-05
2.10615e-05
3.13191e-05
2.72982e-05
1.62626e-05
2.74353e-05
2.7707e-05
1.8743e-05
1.9368e-05
3.06382e-05
1.58325e-05
1.80008e-05
7.15558e-06
5.00367e-06
8.21651e-06
9.71113e-06
2.42714e-05
5.96571e-05
2.58741e-06
4.34388e-08
1.23309e-09
3.75177e-11
2.84628e-12
1.06911e-13
0
0
0
0
0
0
0
0
0
0
0
0
0
0
0
0
0
0
0
0
0
0
0
0
0
0
0
0
0
0
0
0
0
0
0
0
0
0
0
0
0
0
0
0
0
0
0
0
0
0.000106778
0.000106003
0.000113267
0.000118981
0.000111767
9.53324e-05
8.8775e-05
8.13609e-05
7.36344e-05
6.93513e-05
6.35314e-05
5.55441e-05
4.96013e-05
4.80887e-05
5.23181e-05
5.63504e-05
6.23914e-05
9.34292e-05
4.98626e-05
4.1274e-05
6.9975e-05
4.50935e-05
4.33658e-05
4.12916e-05
3.87142e-05
3.4702e-05
5.11729e-05
2.78268e-05
2.46396e-05
3.95027e-05
2.27231e-05
2.116e-05
2.12467e-05
2.15777e-05
2.2442e-05
2.28657e-05
2.26019e-05
1.97118e-05
2.4449e-05
1.59583e-05
6.06479e-06
6.21965e-06
1.33876e-05
4.59415e-05
4.24284e-05
1.3204e-06
2.17742e-08
6.82236e-10
1.85593e-11
3.12132e-12
1.1125e-12
4.03805e-17
0
0
0
0
0
0
0
0
0
0
0
0
0
0
0
0
0
0
0
0
0
0
0
0
0
0
0
0
0
0
0
0
0
0
0
0
0
0
0
0
0
0
0
0
0
0
0
0
0.000106561
0.000104585
0.000105558
0.000110565
0.000117861
0.000117962
0.000113233
0.000105159
9.4464e-05
8.24211e-05
6.65844e-05
5.15561e-05
4.12911e-05
3.67654e-05
3.90551e-05
4.739e-05
5.94532e-05
6.26546e-05
5.61097e-05
8.67988e-05
8.52208e-05
4.77746e-05
4.30696e-05
5.78716e-05
5.94498e-05
3.56003e-05
3.40412e-05
3.25786e-05
2.89864e-05
4.46095e-05
4.29039e-05
2.70536e-05
2.70759e-05
2.72511e-05
4.30363e-05
2.81681e-05
2.74709e-05
3.77928e-05
3.09194e-05
1.23001e-05
8.91115e-06
8.9122e-06
1.80168e-05
3.8628e-05
2.27017e-05
6.98837e-07
1.08494e-08
3.61652e-10
1.57049e-11
4.17136e-12
1.34218e-12
9.01297e-13
0
0
0
0
0
0
0
0
0
0
0
0
0
0
0
0
0
0
0
0
0
0
0
0
0
0
0
0
0
0
0
0
0
0
0
0
0
0
0
0
0
0
0
0
0
0
0
0
0.000105735
0.000103245
0.000101682
0.000101391
0.000104983
0.000109644
0.000108296
0.000101814
8.94679e-05
6.96863e-05
5.23968e-05
3.97141e-05
3.11852e-05
2.70503e-05
2.79716e-05
3.48485e-05
4.64135e-05
7.25528e-05
6.15728e-05
5.70714e-05
5.30464e-05
4.93594e-05
4.43778e-05
3.95585e-05
3.81686e-05
3.63324e-05
6.00728e-05
3.57221e-05
3.4584e-05
3.30106e-05
3.20934e-05
4.45955e-05
4.37618e-05
2.99518e-05
3.0477e-05
3.16229e-05
3.13335e-05
2.8223e-05
2.14155e-05
1.42653e-05
1.0337e-05
1.1355e-05
2.52078e-05
4.25046e-05
1.35968e-05
3.62051e-07
5.73777e-09
1.56556e-10
1.27267e-11
2.60774e-12
1.31221e-12
9.33891e-13
0
0
0
0
0
0
0
0
0
0
0
0
0
0
0
0
0
0
0
0
0
0
0
0
0
0
0
0
0
0
0
0
0
0
0
0
0
0
0
0
0
0
0
0
0
0
0
0
0.000104339
0.000100704
9.77515e-05
9.42611e-05
9.11552e-05
9.01574e-05
8.43845e-05
7.38513e-05
5.8418e-05
4.3296e-05
3.19682e-05
2.50193e-05
2.07897e-05
1.87074e-05
1.95758e-05
2.49352e-05
3.56347e-05
4.86842e-05
6.89185e-05
6.01783e-05
9.61917e-05
4.92598e-05
4.42759e-05
4.13014e-05
3.94638e-05
3.80873e-05
3.80869e-05
3.8804e-05
3.79374e-05
3.6314e-05
3.47817e-05
5.0808e-05
3.25857e-05
3.28025e-05
3.37914e-05
3.60187e-05
5.03528e-05
2.91184e-05
2.45355e-05
1.62929e-05
1.22338e-05
2.58296e-05
3.09102e-05
4.20209e-05
7.54236e-06
1.82733e-07
3.19988e-09
7.5618e-11
7.21153e-12
1.96273e-12
1.27463e-12
4.32125e-13
0
0
0
0
0
0
0
0
0
0
0
0
0
0
0
0
0
0
0
0
0
0
0
0
0
0
0
0
0
0
0
0
0
0
0
0
0
0
0
0
0
0
0
0
0
0
0
0
0.000102183
9.68786e-05
9.20912e-05
8.74301e-05
8.11054e-05
7.06502e-05
5.57743e-05
4.23579e-05
3.14739e-05
2.26306e-05
1.71328e-05
1.4271e-05
1.28475e-05
1.24253e-05
1.34893e-05
1.77116e-05
2.64745e-05
3.8975e-05
6.08017e-05
6.14395e-05
5.71927e-05
5.12141e-05
4.39828e-05
4.28034e-05
4.19734e-05
7.01287e-05
6.89268e-05
4.11694e-05
4.01465e-05
3.84534e-05
3.66152e-05
3.5108e-05
3.4683e-05
3.52774e-05
3.76038e-05
4.0504e-05
3.68193e-05
3.10015e-05
2.61725e-05
1.84829e-05
1.45049e-05
1.81186e-05
3.72189e-05
5.08506e-05
4.06597e-06
8.64794e-08
1.88671e-09
3.05568e-11
4.6326e-12
1.61913e-12
7.47082e-13
0
0
0
0
0
0
0
0
0
0
0
0
0
0
0
0
0
0
0
0
0
0
0
0
0
0
0
0
0
0
0
0
0
0
0
0
0
0
0
0
0
0
0
0
0
0
0
0
0
9.89624e-05
9.08506e-05
8.55398e-05
7.93398e-05
6.74174e-05
4.89369e-05
3.27013e-05
2.26335e-05
1.58794e-05
1.12862e-05
8.83008e-06
7.71303e-06
7.52465e-06
8.03526e-06
9.38008e-06
1.2601e-05
1.94916e-05
3.07245e-05
4.43307e-05
6.13657e-05
5.69089e-05
5.33416e-05
8.75088e-05
4.58804e-05
4.47219e-05
4.42489e-05
4.33547e-05
4.23482e-05
4.11614e-05
3.9427e-05
3.77083e-05
3.66543e-05
3.66398e-05
6.74823e-05
6.58096e-05
4.37074e-05
3.79685e-05
3.24557e-05
2.81076e-05
2.07146e-05
1.72871e-05
2.42932e-05
4.04543e-05
2.9166e-05
2.05273e-06
3.53774e-08
1.14009e-09
2.07636e-11
3.40772e-12
1.35891e-12
5.9359e-13
0
0
0
0
0
0
0
0
0
0
0
0
0
0
0
0
0
0
0
0
0
0
0
0
0
0
0
0
0
0
0
0
0
0
0
0
0
0
0
0
0
0
0
0
0
0
0
0
0
9.4012e-05
8.29283e-05
7.44392e-05
6.28568e-05
4.74378e-05
2.98851e-05
1.82005e-05
1.2212e-05
8.27214e-06
5.81226e-06
4.57777e-06
4.10411e-06
4.25538e-06
5.12723e-06
6.5904e-06
9.15281e-06
1.43419e-05
2.36207e-05
3.55595e-05
5.26691e-05
5.53181e-05
5.26574e-05
5.02843e-05
4.8052e-05
8.46284e-05
4.53356e-05
4.38498e-05
7.54314e-05
4.09358e-05
3.93488e-05
3.82074e-05
3.77158e-05
3.84503e-05
4.09667e-05
4.66121e-05
4.51521e-05
3.79578e-05
3.38126e-05
3.01214e-05
2.5424e-05
2.29868e-05
2.88259e-05
4.05671e-05
2.08488e-05
1.07309e-06
1.7124e-08
6.56105e-10
1.40245e-11
2.62447e-12
1.01093e-12
1.87315e-18
0
0
0
0
0
0
0
0
0
0
0
0
0
0
0
0
0
0
0
0
0
0
0
0
0
0
0
0
0
0
0
0
0
0
0
0
0
0
0
0
0
0
0
0
0
0
0
0
0
8.68232e-05
6.65409e-05
5.11395e-05
3.99569e-05
2.76073e-05
1.64578e-05
1.04983e-05
6.77814e-06
4.50796e-06
3.17598e-06
2.47113e-06
2.22568e-06
2.46958e-06
3.26862e-06
4.68008e-06
6.85179e-06
1.07365e-05
1.79468e-05
2.85534e-05
3.96526e-05
5.9378e-05
5.03698e-05
4.89361e-05
4.74303e-05
8.4019e-05
4.44352e-05
4.26038e-05
4.09769e-05
3.96128e-05
3.85422e-05
3.83453e-05
3.86151e-05
4.04065e-05
4.43096e-05
4.87106e-05
4.41626e-05
3.76218e-05
3.53994e-05
3.23435e-05
2.74069e-05
4.14659e-05
3.42299e-05
3.70542e-05
1.35396e-05
5.25376e-07
8.66498e-09
3.509e-10
9.31343e-12
2.00082e-12
8.33945e-13
0
0
0
0
0
0
0
0
0
0
0
0
0
0
0
0
0
0
0
0
0
0
0
0
0
0
0
0
0
0
0
0
0
0
0
0
0
0
0
0
0
0
0
0
0
0
0
0
0
0
7.44086e-05
3.9312e-05
2.55535e-05
1.92549e-05
1.36363e-05
9.12133e-06
5.89953e-06
3.77356e-06
2.52055e-06
1.82358e-06
1.44201e-06
1.28542e-06
1.51012e-06
2.15321e-06
3.34566e-06
5.21582e-06
8.2582e-06
1.36349e-05
2.22207e-05
3.18065e-05
4.50816e-05
5.16369e-05
4.62415e-05
4.46418e-05
4.36346e-05
4.20363e-05
7.45242e-05
3.85495e-05
3.75959e-05
3.72521e-05
3.82041e-05
3.95018e-05
4.30963e-05
4.64024e-05
4.66664e-05
4.15334e-05
3.77206e-05
3.74592e-05
3.45086e-05
2.94254e-05
2.98202e-05
3.73267e-05
3.06573e-05
7.44199e-06
2.35072e-07
4.29581e-09
1.6341e-10
6.08858e-12
1.57823e-12
4.98795e-13
0
0
0
0
0
0
0
0
0
0
0
0
0
0
0
0
0
0
0
0
0
0
0
0
0
0
0
0
0
0
0
0
0
0
0
0
0
0
0
0
0
0
0
0
0
0
0
0
0
0
3.9469e-05
1.53822e-05
1.04945e-05
8.71024e-06
6.8759e-06
4.82265e-06
3.20476e-06
2.14561e-06
1.48292e-06
1.13925e-06
9.15768e-07
8.08004e-07
9.95796e-07
1.46367e-06
2.39626e-06
3.99393e-06
6.44861e-06
1.0498e-05
1.70652e-05
2.52744e-05
3.29589e-05
4.64819e-05
4.62272e-05
4.13216e-05
4.01648e-05
6.64587e-05
6.30035e-05
3.55791e-05
3.5185e-05
3.56177e-05
5.85128e-05
4.06625e-05
4.71648e-05
4.6177e-05
4.27578e-05
3.99625e-05
3.86993e-05
4.02211e-05
3.65087e-05
3.23507e-05
3.41989e-05
3.84726e-05
2.23948e-05
2.23743e-06
9.4888e-08
2.24017e-09
5.31e-11
4.45009e-12
1.14171e-12
1.23565e-13
1.30355e-14
0
0
0
0
0
0
0
0
0
0
0
0
0
0
0
0
0
0
0
0
0
0
0
0
0
0
0
0
0
0
0
0
0
0
0
0
0
0
0
0
0
0
0
0
0
0
0
0
0
9.20244e-07
1.30163e-06
1.59611e-06
1.80272e-06
1.78426e-06
1.54062e-06
1.22511e-06
9.51179e-07
7.49244e-07
6.47885e-07
5.5106e-07
4.96344e-07
6.40366e-07
9.46982e-07
1.59496e-06
2.75525e-06
4.54992e-06
7.21651e-06
1.11478e-05
1.63254e-05
2.18959e-05
2.74576e-05
3.64706e-05
3.82586e-05
3.41259e-05
3.24101e-05
3.12351e-05
3.06653e-05
3.08146e-05
3.19285e-05
3.56071e-05
4.27703e-05
3.96491e-05
3.66952e-05
3.63428e-05
3.69343e-05
4.02487e-05
4.49025e-05
3.85194e-05
3.5892e-05
3.72464e-05
3.29611e-05
1.05241e-05
9.13925e-07
1.703e-08
6.74651e-10
1.30742e-11
2.23403e-12
9.83043e-15
0
0
0
0
0
0
0
0
0
0
0
0
0
0
0
0
0
0
0
0
0
0
0
0
0
0
0
0
0
0
0
0
0
0
0
0
0
0
0
0
0
0
0
0
0
0
0
0
0
0
0
8.03325e-08
1.44363e-07
1.93251e-07
2.48428e-07
3.17735e-07
3.70357e-07
3.85996e-07
3.75164e-07
3.73076e-07
3.69726e-07
3.499e-07
3.28906e-07
3.94196e-07
5.90018e-07
9.58334e-07
1.64479e-06
2.75607e-06
4.31694e-06
6.42809e-06
9.13139e-06
1.22577e-05
1.53529e-05
1.91995e-05
2.38729e-05
2.72768e-05
2.85771e-05
2.88862e-05
2.80195e-05
2.60331e-05
2.45821e-05
2.67084e-05
3.13662e-05
2.82748e-05
2.8889e-05
3.14557e-05
3.68926e-05
4.55477e-05
4.77561e-05
4.04685e-05
3.8066e-05
3.47966e-05
2.34068e-05
2.46606e-06
1.8912e-07
3.72775e-09
1.79996e-10
5.27819e-12
5.72716e-13
0
0
0
0
0
0
0
0
0
0
0
0
0
0
0
0
0
0
0
0
0
0
0
0
0
0
0
0
0
0
0
0
0
0
0
0
0
0
0
0
0
0
0
0
0
0
0
0
0
0
0
0
8.93432e-09
2.30933e-08
3.49616e-08
5.32196e-08
8.01513e-08
1.15794e-07
1.53178e-07
1.84384e-07
2.17134e-07
2.37648e-07
2.41492e-07
2.33412e-07
2.53741e-07
3.75006e-07
5.95835e-07
9.75555e-07
1.58522e-06
2.44324e-06
3.53247e-06
4.87452e-06
6.36333e-06
8.09757e-06
1.00697e-05
1.26535e-05
1.56047e-05
1.88235e-05
2.16584e-05
2.15596e-05
2.00785e-05
1.77526e-05
1.78423e-05
1.92371e-05
2.34985e-05
2.46999e-05
2.87954e-05
3.83291e-05
5.41195e-05
4.5286e-05
3.98182e-05
3.4197e-05
2.38771e-05
7.85713e-06
1.21957e-06
2.50375e-08
9.69271e-10
2.62946e-11
2.69149e-12
1.52418e-17
0
0
0
0
0
0
0
0
0
0
0
0
0
0
0
0
0
0
0
0
0
0
0
0
0
0
0
0
0
0
0
0
0
0
0
0
0
0
0
0
0
0
0
0
0
0
0
0
0
0
0
0
1.42209e-09
5.0371e-09
1.05013e-08
1.98668e-08
3.75247e-08
6.36087e-08
9.37453e-08
1.19885e-07
1.45137e-07
1.61931e-07
1.65086e-07
1.59497e-07
1.65969e-07
2.37086e-07
3.72067e-07
5.86231e-07
9.11929e-07
1.35368e-06
1.89419e-06
2.52941e-06
3.25818e-06
4.16595e-06
5.28945e-06
6.81844e-06
8.77577e-06
1.13094e-05
1.3274e-05
1.45237e-05
1.60125e-05
1.56922e-05
1.58166e-05
1.38967e-05
2.01375e-05
2.23178e-05
2.88643e-05
4.27967e-05
5.13936e-05
4.06486e-05
3.38829e-05
2.31477e-05
1.03509e-05
2.72443e-06
2.21867e-07
4.62208e-09
2.2772e-10
6.89487e-12
1.34496e-12
0
0
0
0
0
0
0
0
0
0
0
0
0
0
0
0
0
0
0
0
0
0
0
0
0
0
0
0
0
0
0
0
0
0
0
0
0
0
0
0
0
0
0
0
0
0
0
0
0
0
0
0
0
0
1.78224e-09
5.92227e-09
1.55577e-08
3.18042e-08
5.44982e-08
7.98974e-08
9.89625e-08
1.05597e-07
1.12995e-07
1.07997e-07
9.37828e-08
1.0779e-07
1.50995e-07
2.25838e-07
3.54136e-07
5.35249e-07
7.73502e-07
1.06056e-06
1.39432e-06
1.79519e-06
2.29834e-06
2.96086e-06
3.94247e-06
5.30867e-06
7.18617e-06
9.13178e-06
1.15921e-05
1.3657e-05
1.36431e-05
1.33544e-05
1.15804e-05
1.87369e-05
2.22359e-05
3.19848e-05
5.0943e-05
3.95731e-05
3.22118e-05
2.35562e-05
1.00997e-05
3.00401e-06
5.95013e-07
2.08996e-08
8.8409e-10
2.51025e-11
2.97493e-12
2.35548e-14
0
0
0
0
0
0
0
0
0
0
0
0
0
0
0
0
0
0
0
0
0
0
0
0
0
0
0
0
0
0
0
0
0
0
0
0
0
0
0
0
0
0
0
0
0
0
0
0
0
0
0
0
0
0
5.80296e-10
4.9641e-09
1.40978e-08
3.00823e-08
5.063e-08
7.04834e-08
8.34677e-08
7.90074e-08
7.64977e-08
6.4091e-08
5.86137e-08
7.97585e-08
1.10565e-07
1.62919e-07
2.47223e-07
3.6318e-07
5.08116e-07
6.83563e-07
8.74817e-07
1.10631e-06
1.41084e-06
1.85248e-06
2.55185e-06
3.63581e-06
5.29432e-06
7.14154e-06
9.80813e-06
1.17209e-05
1.14846e-05
1.10519e-05
1.26801e-05
2.08655e-05
2.77664e-05
3.79747e-05
3.70578e-05
2.88414e-05
2.02627e-05
1.25605e-05
2.82686e-06
6.24579e-07
5.0849e-08
2.54285e-09
1.25521e-10
5.29852e-12
6.29176e-13
0
0
0
0
0
0
0
0
0
0
0
0
0
0
0
0
0
0
0
0
0
0
0
0
0
0
0
0
0
0
0
0
0
0
0
0
0
0
0
0
0
0
0
0
0
0
0
0
0
0
0
0
0
0
0
1.29869e-10
3.0124e-09
9.04858e-09
2.045e-08
3.50897e-08
4.79125e-08
5.49479e-08
5.13282e-08
4.6764e-08
3.7692e-08
4.41117e-08
5.56927e-08
7.39908e-08
1.06832e-07
1.5982e-07
2.42075e-07
3.46794e-07
4.69844e-07
6.05424e-07
7.58989e-07
9.67255e-07
1.30688e-06
1.86207e-06
2.88043e-06
4.48725e-06
6.30904e-06
8.69302e-06
9.9974e-06
9.31181e-06
1.00389e-05
1.60703e-05
2.06535e-05
2.35074e-05
2.67925e-05
2.53426e-05
1.74103e-05
8.71048e-06
4.38177e-06
5.49339e-07
5.76309e-08
5.3046e-09
3.03806e-10
1.0392e-11
2.40655e-12
0
0
0
0
0
0
0
0
0
0
0
0
0
0
0
0
0
0
0
0
0
0
0
0
0
0
0
0
0
0
0
0
0
0
0
0
0
0
0
0
0
0
0
0
0
0
0
0
0
0
0
0
0
0
0
0
0
7.72665e-10
2.34997e-09
6.06478e-09
1.18682e-08
1.78486e-08
2.08921e-08
2.13579e-08
2.53284e-08
2.22373e-08
2.74889e-08
3.04698e-08
3.65439e-08
5.25781e-08
9.71205e-08
1.74129e-07
2.76201e-07
3.92042e-07
5.14804e-07
6.41115e-07
8.19898e-07
1.11936e-06
1.65301e-06
2.70018e-06
4.3127e-06
5.98602e-06
7.65858e-06
8.37809e-06
9.40629e-06
1.04874e-05
1.19539e-05
1.26713e-05
1.45812e-05
1.71487e-05
1.52737e-05
7.874e-06
2.38274e-06
1.01792e-06
5.71573e-08
6.06545e-09
4.76773e-10
1.9582e-11
4.07706e-12
1.18238e-12
0
0
0
0
0
0
0
0
0
0
0
0
0
0
0
0
0
0
0
0
0
0
0
0
0
0
0
0
0
0
0
0
0
0
0
0
0
0
0
0
0
0
0
0
0
0
0
0
0
0
0
0
0
0
0
0
0
0
9.35782e-10
2.84591e-09
6.41433e-09
1.14603e-08
1.23528e-08
9.20283e-09
1.00967e-08
1.19201e-08
1.31357e-08
1.00704e-08
1.63719e-08
3.83781e-08
8.02715e-08
1.52564e-07
2.5294e-07
3.67226e-07
4.86878e-07
6.02777e-07
7.64224e-07
1.0417e-06
1.56024e-06
2.60859e-06
4.24522e-06
5.9384e-06
7.21853e-06
8.25608e-06
8.58731e-06
8.20718e-06
7.69156e-06
7.31737e-06
8.12529e-06
9.43125e-06
7.35141e-06
2.49985e-06
4.99489e-07
1.23131e-07
7.22654e-09
5.44348e-10
2.85347e-11
5.33895e-12
1.84716e-12
0
0
0
0
0
0
0
0
0
0
0
0
0
0
0
0
0
0
0
0
0
0
0
0
0
0
0
0
0
0
0
0
0
0
0
0
0
0
0
0
0
0
0
0
0
0
0
0
0
0
0
0
0
0
0
0
0
0
0
3.01662e-10
1.01628e-09
2.71261e-09
5.82535e-09
7.98509e-09
5.50163e-09
3.40736e-09
5.19886e-09
4.05746e-09
4.66704e-09
1.1228e-08
2.85433e-08
6.51595e-08
1.32516e-07
2.31288e-07
3.47151e-07
4.64876e-07
5.76976e-07
7.23653e-07
9.79587e-07
1.4606e-06
2.41705e-06
3.98652e-06
6.0928e-06
7.58245e-06
6.93857e-06
5.7086e-06
4.85643e-06
3.98646e-06
3.31845e-06
3.56637e-06
4.01888e-06
2.84233e-06
6.7315e-07
6.4096e-08
1.30179e-08
7.79296e-10
3.42519e-11
6.73416e-12
2.12087e-12
9.19948e-15
0
0
0
0
0
0
0
0
0
0
0
0
0
0
0
0
0
0
0
0
0
0
0
0
0
0
0
0
0
0
0
0
0
0
0
0
0
0
0
0
0
0
0
0
0
0
0
0
0
0
0
0
0
0
0
0
0
0
0
0
3.04158e-10
9.09055e-10
2.28321e-09
4.384e-09
3.4083e-09
1.05025e-09
1.68799e-09
1.17349e-09
2.90865e-09
7.37906e-09
2.06216e-08
5.11586e-08
1.10399e-07
2.04363e-07
3.19945e-07
4.34816e-07
5.42698e-07
6.73359e-07
8.87337e-07
1.31244e-06
2.10884e-06
3.36283e-06
4.56335e-06
4.58349e-06
3.81062e-06
3.03879e-06
2.36702e-06
1.74673e-06
1.24288e-06
1.35017e-06
1.30873e-06
8.71291e-07
1.27752e-07
1.02047e-08
1.22694e-09
4.67674e-11
7.88446e-12
2.55467e-12
3.64429e-14
0
0
0
0
0
0
0
0
0
0
0
0
0
0
0
0
0
0
0
0
0
0
0
0
0
0
0
0
0
0
0
0
0
0
0
0
0
0
0
0
0
0
0
0
0
0
0
0
0
0
0
0
0
0
0
0
0
0
0
0
0
0
2.80075e-10
7.73659e-10
2.02538e-09
2.06229e-09
6.17594e-10
3.15082e-10
5.8578e-10
1.73702e-09
4.80072e-09
1.40565e-08
3.76896e-08
8.63537e-08
1.70592e-07
2.77869e-07
3.87447e-07
4.88903e-07
5.97079e-07
7.98114e-07
1.15967e-06
1.68109e-06
2.27246e-06
2.60761e-06
2.41051e-06
1.93517e-06
1.42273e-06
1.04168e-06
8.16175e-07
4.3118e-07
3.40764e-07
3.34328e-07
1.7386e-07
1.68904e-08
1.42462e-09
8.90211e-11
1.02391e-11
3.33151e-12
5.99078e-13
0
0
0
0
0
0
0
0
0
0
0
0
0
0
0
0
0
0
0
0
0
0
0
0
0
0
0
0
0
0
0
0
0
0
0
0
0
0
0
0
0
0
0
0
0
0
0
0
0
0
0
0
0
0
0
0
0
0
0
0
0
0
0
0
0
8.46611e-10
1.17441e-09
3.24348e-10
6.76759e-11
2.39804e-10
9.47206e-10
2.89634e-09
8.86396e-09
2.56888e-08
6.21891e-08
1.29996e-07
2.23067e-07
3.20399e-07