/*--------------------------------*- C++ -*----------------------------------*\
  =========                 |
  \\      /  F ield         | OpenFOAM: The Open Source CFD Toolbox
   \\    /   O peration     | Website:  https://openfoam.org
    \\  /    A nd           | Version:  6
     \\/     M anipulation  |
\*---------------------------------------------------------------------------*/
FoamFile
{
    version     2.0;
    format      ascii;
    class       volScalarField;
    location    "0.005";
    object      H2;
}
// * * * * * * * * * * * * * * * * * * * * * * * * * * * * * * * * * * * * * //

dimensions      [0 0 0 0 0 0 0];

internalField   nonuniform List<scalar> 
8000
(
2.47934e-17
7.76411e-13
5.1253e-12
5.49378e-11
8.55792e-10
1.34354e-08
1.245e-07
4.57511e-07
7.89614e-07
1.05806e-06
1.30501e-06
1.5367e-06
1.76488e-06
1.92901e-06
1.94582e-06
1.93538e-06
2.1096e-06
2.58026e-06
3.37983e-06
5.56201e-06
1.325e-05
3.73352e-05
9.60807e-05
0.000110016
0.000251438
0.000635727
0.000904569
0.000947896
0.000875382
0.000807156
0.000828995
0.000954049
0.00113545
0.00130056
0.00141663
0.00148522
0.0015387
0.00159699
0.00161605
0.00163559
0.00163505
0.0016325
0.00161282
0.00153406
0.00130401
0.000441321
8.71207e-05
7.19491e-05
6.47272e-05
2.33805e-05
3.83577e-06
4.58994e-07
5.5479e-09
0
0
0
0
0
0
0
0
0
0
0
0
0
0
0
0
0
0
0
0
0
0
0
0
0
0
0
0
0
0
0
0
0
0
0
0
0
0
0
0
0
0
0
0
0
0
0
4.0393e-16
7.44429e-12
2.06473e-11
1.92423e-10
2.06801e-09
2.96827e-08
2.60512e-07
7.48464e-07
1.18484e-06
1.59156e-06
1.93177e-06
2.18185e-06
2.41369e-06
2.65692e-06
2.62392e-06
2.44242e-06
2.51971e-06
2.9754e-06
3.74965e-06
5.94766e-06
1.41322e-05
4.87642e-05
0.00118485
0.000187071
0.000309537
0.000789887
0.00111186
0.00107674
0.000918274
0.000806017
0.000815337
0.000944049
0.00113381
0.00130496
0.00142359
0.00150848
0.00154166
0.00161295
0.0016171
0.00163295
0.00163621
0.00163337
0.00161372
0.0015357
0.00131341
0.000496523
9.39945e-05
6.83676e-05
8.20404e-05
3.11206e-05
6.40501e-06
7.17989e-07
2.36414e-09
0
0
0
0
0
0
0
0
0
0
0
0
0
0
0
0
0
0
0
0
0
0
0
0
0
0
0
0
0
0
0
0
0
0
0
0
0
0
0
0
0
0
0
0
0
0
0
3.04253e-12
2.41401e-07
3.1441e-12
5.9841e-07
9.91911e-09
9.98093e-08
5.46553e-07
1.21747e-06
3.09741e-06
2.78375e-06
3.28443e-06
3.56046e-06
3.71132e-06
4.21617e-06
7.7398e-06
6.14515e-06
3.31138e-06
3.99759e-06
4.9216e-06
6.89409e-06
1.2922e-05
3.20575e-05
9.87574e-05
9.74299e-05
0.000186659
0.000672853
0.00157574
0.00115303
0.000866723
0.000740614
0.000770583
0.000925906
0.00113487
0.00131595
0.00143926
0.0015139
0.00156564
0.00161707
0.00163058
0.0016349
0.00163809
0.00163577
0.00162708
0.00155633
0.00133141
0.000572821
0.000178504
5.7688e-05
2.71505e-05
1.97778e-05
3.81017e-06
4.12021e-07
3.70758e-10
0
0
0
0
0
0
0
0
0
0
0
0
0
0
0
0
0
0
0
0
0
0
0
0
0
0
0
0
0
0
0
0
0
0
0
0
0
0
0
0
0
0
0
0
0
0
0
4.16516e-16
1.23678e-10
4.01408e-09
3.63169e-08
1.49804e-07
3.44614e-07
8.17432e-07
1.58666e-06
2.80461e-06
7.65069e-06
7.37634e-06
7.85023e-06
7.65511e-06
9.26939e-06
3.88726e-06
3.62946e-06
4.21461e-06
6.9907e-06
1.27315e-05
9.66185e-06
1.44761e-05
2.67752e-05
5.70181e-05
7.25438e-05
0.000118136
0.000309123
0.000600956
0.000743935
0.000729531
0.000831221
0.000755729
0.000929299
0.00114864
0.00133349
0.00146336
0.00153185
0.00159016
0.00161136
0.00163374
0.00163796
0.00164031
0.00163832
0.00163018
0.00156096
0.00134746
0.000546351
7.40292e-05
3.72821e-05
2.69613e-05
9.77263e-06
1.70461e-06
1.53181e-07
1.4002e-11
0
0
0
0
0
0
0
0
0
0
0
0
0
0
0
0
0
0
0
0
0
0
0
0
0
0
0
0
0
0
0
0
0
0
0
0
0
0
0
0
0
0
0
0
0
0
0
5.91297e-14
1.4986e-10
1.05213e-06
2.81867e-07
1.85496e-06
7.95219e-07
1.07678e-06
1.93965e-06
3.16399e-06
9.79124e-06
4.40645e-05
3.73146e-05
2.31788e-05
6.51876e-06
4.46268e-06
7.97749e-06
6.22496e-06
1.55432e-05
1.35869e-05
1.51367e-05
2.16866e-05
2.79259e-05
4.6827e-05
7.26264e-05
0.000115286
0.000195189
0.000432951
0.00120944
0.000956449
0.000731281
0.000754515
0.000953515
0.00117319
0.0013561
0.00150556
0.00164497
0.00160382
0.00162707
0.00163404
0.00164082
0.00164264
0.00164087
0.00163024
0.00158204
0.00136432
0.000545769
6.23808e-05
2.7337e-05
1.48091e-05
4.72963e-06
8.8435e-07
3.11891e-08
0
0
0
0
0
0
0
0
0
0
0
0
0
0
0
0
0
0
0
0
0
0
0
0
0
0
0
0
0
0
0
0
0
0
0
0
0
0
0
0
0
0
0
0
0
0
0
0
2.16219e-12
2.67035e-11
1.23976e-07
1.17499e-06
1.38234e-06
1.57478e-06
1.31427e-06
1.73986e-06
2.62202e-06
4.22395e-06
7.54316e-06
7.774e-06
5.99217e-06
4.54181e-06
4.43101e-06
5.87814e-06
1.04244e-05
2.23796e-05
2.76913e-05
3.19794e-05
2.92146e-05
3.42786e-05
4.91041e-05
7.9115e-05
0.000176934
0.000191563
0.000298946
0.000832129
0.000685795
0.000536424
0.000683166
0.000991896
0.00134152
0.00137497
0.00150311
0.00158492
0.0016083
0.00162802
0.00163675
0.00164361
0.00164482
0.00164311
0.00166513
0.00158748
0.00138362
0.000599895
6.7465e-05
2.61311e-05
1.08494e-05
3.48832e-06
1.08329e-06
2.82941e-07
0
0
0
0
0
0
0
0
0
0
0
0
0
0
0
0
0
0
0
0
0
0
0
0
0
0
0
0
0
0
0
0
0
0
0
0
0
0
0
0
0
0
0
0
0
0
0
0
1.50959e-12
3.76102e-10
3.27312e-08
2.68901e-07
6.81057e-07
9.7082e-07
1.9025e-06
2.03528e-06
2.6461e-06
3.19513e-06
5.87234e-06
7.06297e-06
6.59831e-06
4.41523e-06
5.57248e-06
8.90415e-06
1.44494e-05
2.74396e-05
6.68967e-05
4.60306e-05
4.89496e-05
4.46004e-05
5.61793e-05
9.64079e-05
0.000696185
0.000289629
0.000241403
0.000291234
0.000324385
0.000456833
0.00070511
0.000996792
0.00123364
0.00139751
0.00151038
0.00160273
0.00162337
0.00163134
0.00163825
0.00167319
0.00164653
0.00164493
0.00163532
0.00159055
0.00140586
0.000701152
8.1268e-05
3.30386e-05
1.26552e-05
3.81069e-06
1.70223e-06
5.07807e-07
0
0
0
0
0
0
0
0
0
0
0
0
0
0
0
0
0
0
0
0
0
0
0
0
0
0
0
0
0
0
0
0
0
0
0
0
0
0
0
0
0
0
0
0
0
0
0
0
2.91465e-07
4.66068e-07
3.74102e-08
3.50389e-07
7.20518e-07
1.62673e-06
1.98786e-06
3.22527e-06
7.53413e-06
3.98115e-06
3.84521e-06
3.89523e-06
4.32878e-06
6.53977e-06
1.28059e-05
1.78081e-05
2.99728e-05
5.08429e-05
0.000119352
9.87179e-05
6.60731e-05
6.59822e-05
7.48232e-05
0.000106993
0.000207462
0.000229487
0.000175022
0.000201146
0.000301162
0.000557999
0.000873668
0.00111461
0.00129937
0.00142858
0.00154159
0.00160016
0.00162514
0.00163315
0.00163848
0.00164539
0.00164755
0.00164663
0.00163583
0.00160687
0.00143092
0.000824155
9.73109e-05
1.83042e-05
1.36589e-05
7.09902e-08
5.68291e-08
3.41019e-07
0
0
0
0
0
0
0
0
0
0
0
0
0
0
0
0
0
0
0
0
0
0
0
0
0
0
0
0
0
0
0
0
0
0
0
0
0
0
0
0
0
0
0
0
0
0
0
0
2.93024e-07
6.59141e-07
1.66787e-07
9.60643e-07
1.32087e-06
1.77821e-06
2.8096e-06
5.20965e-06
1.77559e-05
6.84338e-06
9.19781e-06
8.45655e-06
6.42827e-06
9.15374e-06
1.26234e-05
2.15566e-05
3.45685e-05
6.71587e-05
0.000490592
0.00014201
9.99281e-05
0.000107756
9.92823e-05
0.000145559
0.000212859
0.000166121
0.000165575
0.000208333
0.000411387
0.000801169
0.00131836
0.00140626
0.00137148
0.00147701
0.00158712
0.00161892
0.00162955
0.00163381
0.0016375
0.00164409
0.00167532
0.00167505
0.00163643
0.00160724
0.00154741
0.000990362
0.000107746
3.61569e-05
1.18616e-05
3.08074e-06
1.46316e-06
2.11259e-07
0
0
0
0
0
0
0
0
0
0
0
0
0
0
0
0
0
0
0
0
0
0
0
0
0
0
0
0
0
0
0
0
0
0
0
0
0
0
0
0
0
0
0
0
0
0
0
0
4.28841e-13
5.59151e-07
8.97789e-07
1.30955e-06
1.61101e-06
2.61642e-06
3.3483e-06
5.00965e-06
7.88508e-06
1.16238e-05
9.01185e-06
1.1038e-05
1.46277e-05
2.00342e-05
3.58883e-05
2.88556e-05
3.20583e-05
7.71875e-05
0.000318923
0.000195518
0.000154685
0.000187205
0.000164553
0.000187042
0.00018923
0.000180644
0.000200697
0.000267066
0.000473214
0.000955771
0.00113393
0.00131819
0.00155076
0.00150433
0.00159136
0.00165662
0.00163217
0.00163345
0.00163534
0.00164134
0.00167363
0.00164675
0.00163608
0.00160565
0.00140097
0.000753685
0.000119136
3.16686e-05
1.03071e-05
2.76757e-06
1.68029e-06
2.19326e-07
0
0
0
0
0
0
0
0
0
0
0
0
0
0
0
0
0
0
0
0
0
0
0
0
0
0
0
0
0
0
0
0
0
0
0
0
0
0
0
0
0
0
0
0
0
0
0
0
3.36947e-07
3.24547e-07
1.06532e-06
1.80749e-06
2.70011e-06
5.19251e-06
7.93555e-06
1.13531e-05
1.38549e-05
1.6157e-05
1.93837e-05
2.10928e-05
2.61588e-05
2.72598e-05
3.08095e-05
3.2525e-05
4.07205e-05
9.52228e-05
0.000303409
0.000501882
0.000230828
0.000336781
0.000265368
0.000456893
0.00035197
0.000250073
0.000300984
0.00039666
0.000638623
0.000942019
0.00118455
0.00135681
0.00147156
0.00155957
0.00160853
0.00165651
0.00163296
0.00166186
0.00163204
0.00163732
0.00164264
0.00164542
0.0016355
0.00158805
0.00137823
0.000684681
7.98028e-05
2.75458e-05
8.73343e-06
6.18452e-08
1.2163e-06
2.25972e-07
0
0
0
0
0
0
0
0
0
0
0
0
0
0
0
0
0
0
0
0
0
0
0
0
0
0
0
0
0
0
0
0
0
0
0
0
0
0
0
0
0
0
0
0
0
0
0
0
2.77494e-08
1.69065e-06
2.97109e-06
6.41166e-06
7.27156e-06
1.11485e-05
1.41358e-05
2.21592e-05
4.43582e-05
4.49936e-05
4.68289e-05
4.87394e-05
5.69502e-05
5.39332e-05
5.09269e-05
5.17841e-05
6.08332e-05
0.00010834
0.000295613
0.000355884
0.000291198
0.000320382
0.000408011
0.000531774
0.000388601
0.000353945
0.000458078
0.000686238
0.000868862
0.0013001
0.00129482
0.00143114
0.00152185
0.00163263
0.00160946
0.00162026
0.00166048
0.00162847
0.00162742
0.00163241
0.00163834
0.00164443
0.0016645
0.00158296
0.0013475
0.000729947
7.93236e-05
1.10799e-05
7.12793e-06
2.73316e-06
3.92077e-08
2.9508e-07
8.25783e-09
0
0
0
0
0
0
0
0
0
0
0
0
0
0
0
0
0
0
0
0
0
0
0
0
0
0
0
0
0
0
0
0
0
0
0
0
0
0
0
0
0
0
0
0
0
0
0
1.24321e-06
6.65987e-06
1.42346e-05
1.71754e-05
2.52421e-05
3.34212e-05
4.14535e-05
6.11469e-05
0.000319887
0.000229835
0.000138099
0.000124081
0.000111432
9.63646e-05
8.69312e-05
8.55139e-05
0.000114291
0.000139765
0.000241799
0.00041624
0.000461365
0.000453257
0.000572318
0.000814635
0.000514331
0.000502414
0.000607874
0.000892011
0.00101853
0.00125642
0.00137956
0.00148093
0.00157691
0.00158618
0.00160575
0.00161289
0.00165458
0.00165466
0.00162148
0.00162681
0.00163377
0.00166943
0.00166251
0.0015753
0.00130459
0.000556784
5.95475e-05
9.68484e-06
5.69796e-06
2.37616e-06
7.15595e-07
3.05389e-07
1.91353e-07
1.97416e-08
0
0
0
0
0
0
0
0
0
0
0
0
0
0
0
0
0
0
0
0
0
0
0
0
0
0
0
0
0
0
0
0
0
0
0
0
0
0
0
0
0
0
0
0
0
0
5.73663e-06
6.04482e-05
6.99062e-05
7.59069e-05
9.16207e-05
0.000235784
0.000124655
0.000122731
0.000247142
0.000273443
0.000288703
0.000259213
0.000235772
0.000203583
0.000167972
0.000143274
0.000160954
0.000294059
0.000331722
0.000591546
0.00104154
0.000663303
0.000683785
0.00072235
0.000826494
0.000730022
0.000924294
0.000948478
0.00117982
0.00138095
0.00147245
0.00155304
0.0016356
0.00159743
0.00159756
0.0015968
0.00160579
0.00164397
0.00161381
0.00162063
0.00162853
0.00163884
0.00162547
0.00154807
0.00124496
0.000300134
4.91724e-05
1.54524e-05
4.47637e-06
1.85395e-06
5.20528e-07
3.1644e-07
2.89331e-07
2.38201e-07
1.39608e-08
0
0
0
0
0
0
0
0
0
0
0
0
0
0
0
0
0
0
0
0
0
0
0
0
0
0
0
0
0
0
0
0
0
0
0
0
0
0
0
0
0
0
0
0
0
3.64335e-05
0.00146145
0.000994602
0.000640572
0.000349069
0.000580698
0.000264076
0.000412885
0.000706966
0.000641595
0.000930255
0.00065525
0.000700539
0.000469056
0.000608234
0.00027811
0.000227322
0.000247577
0.000374037
0.000802111
0.00103291
0.000886009
0.000763659
0.000814736
0.000874451
0.00110132
0.000997393
0.00114057
0.0013239
0.00161027
0.00162075
0.0016295
0.00163743
0.00163254
0.00162657
0.00162391
0.00157692
0.0015829
0.00163979
0.0016079
0.00165358
0.00163513
0.00165574
0.00161711
0.00116791
0.000274516
3.97013e-05
1.28946e-05
3.94218e-06
1.69578e-06
4.72759e-07
3.14927e-07
3.037e-07
2.97409e-07
2.19538e-07
0
0
0
0
0
0
0
0
0
0
0
0
0
0
0
0
0
0
0
0
0
0
0
0
0
0
0
0
0
0
0
0
0
0
0
0
0
0
0
0
0
0
0
0
0
0.000236915
0.000650089
0.000874418
0.00158395
0.00103223
0.000872497
0.000483167
0.000621843
0.00100158
0.00115709
0.00151851
0.00151323
0.00113439
0.000864185
0.000630389
0.000424767
0.00032859
0.000320167
0.000477212
0.000815416
0.000740193
0.000765469
0.000869325
0.000998645
0.00124196
0.00117215
0.00122097
0.00131982
0.00141147
0.00150089
0.00161967
0.001576
0.00156899
0.00155447
0.00154369
0.00160293
0.00159945
0.00154086
0.00162579
0.00164032
0.0016109
0.00165844
0.0016494
0.0014904
0.0010444
0.000125594
3.17622e-05
1.04896e-05
3.38151e-06
1.65831e-06
4.31602e-07
2.73227e-07
2.61617e-07
3.00339e-07
3.60868e-07
0
0
0
0
0
0
0
0
0
0
0
0
0
0
0
0
0
0
0
0
0
0
0
0
0
0
0
0
0
0
0
0
0
0
0
0
0
0
0
0
0
0
0
0
0
0.000274055
0.000415419
0.000753465
0.0011978
0.0014019
0.00101711
0.00073306
0.00077311
0.0010423
0.00161017
0.00159755
0.00165813
0.00160936
0.00127301
0.000942655
0.000706015
0.000543466
0.00047814
0.000651101
0.000696813
0.00074036
0.000827162
0.000953142
0.00128277
0.00139366
0.00129518
0.00147752
0.00154819
0.00157775
0.00159785
0.00149891
0.00153831
0.00152918
0.00152803
0.001579
0.00156666
0.00156704
0.00149843
0.00154929
0.00162941
0.00164105
0.00161308
0.00163624
0.00145287
0.00105153
0.000116292
1.71431e-05
8.53654e-06
3.17624e-06
1.5221e-06
3.15159e-07
5.12661e-08
5.9515e-09
1.71787e-08
2.32379e-09
0
0
0
0
0
0
0
0
0
0
0
0
0
0
0
0
0
0
0
0
0
0
0
0
0
0
0
0
0
0
0
0
0
0
0
0
0
0
0
0
0
0
0
0
0
0.000535973
0.000465821
0.000608556
0.000927939
0.00130375
0.00121319
0.000809717
0.000805956
0.00107416
0.00135633
0.00155336
0.00164544
0.00164341
0.00153566
0.00115106
0.000894488
0.00085388
0.000663672
0.000843446
0.000741973
0.000786359
0.00099271
0.000957746
0.00109274
0.00120633
0.00125868
0.00128544
0.00132785
0.00136372
0.00141014
0.00146635
0.00158858
0.00157733
0.00144937
0.00153177
0.00138359
0.00139058
0.00142973
0.00148857
0.00155738
0.00163123
0.00163891
0.00154704
0.00137188
0.000868695
8.03019e-05
2.0911e-05
7.25754e-06
2.94852e-06
6.3577e-07
4.04348e-08
0
0
0
0
0
0
0
0
0
0
0
0
0
0
0
0
0
0
0
0
0
0
0
0
0
0
0
0
0
0
0
0
0
0
0
0
0
0
0
0
0
0
0
0
0
0
0
0
0
0.000622395
0.000538876
0.000565715
0.000660297
0.000889351
0.000815781
0.000675489
0.00070359
0.000912989
0.00108096
0.00117853
0.00117596
0.00134409
0.00116821
0.000910801
0.00084325
0.000803576
0.000797844
0.000837556
0.000830888
0.000878001
0.000926224
0.000954601
0.0010244
0.00113051
0.00138516
0.00124167
0.00137603
0.00128379
0.00134944
0.00153203
0.00153359
0.00139017
0.00151284
0.00147622
0.00129583
0.00131852
0.00139853
0.00158009
0.00150182
0.00162066
0.00155937
0.00147323
0.00142777
0.000652797
4.75212e-05
1.72869e-05
5.8583e-06
2.04755e-06
4.31741e-07
4.61408e-10
0
0
0
0
0
0
0
0
0
0
0
0
0
0
0
0
0
0
0
0
0
0
0
0
0
0
0
0
0
0
0
0
0
0
0
0
0
0
0
0
0
0
0
0
0
0
0
0
0
0.000637811
0.000581953
0.00061726
0.000608014
0.000593016
0.000574947
0.000541875
0.000585995
0.000705753
0.000753115
0.000744688
0.000695437
0.000613918
0.000563546
0.000656269
0.000680951
0.000813319
0.000893652
0.000900863
0.00107114
0.00092921
0.00106779
0.000935035
0.000972649
0.00104211
0.00113421
0.00116845
0.00117799
0.00121708
0.00141245
0.00144345
0.00127716
0.00143334
0.00142559
0.00122787
0.00122779
0.00143514
0.00134707
0.00158276
0.0014621
0.00151573
0.00160723
0.00140123
0.00117178
0.000451429
3.61305e-05
1.44542e-05
4.6045e-06
1.52136e-06
3.9688e-07
7.40066e-09
0
0
0
0
0
0
0
0
0
0
0
0
0
0
0
0
0
0
0
0
0
0
0
0
0
0
0
0
0
0
0
0
0
0
0
0
0
0
0
0
0
0
0
0
0
0
0
0
0
0.000640525
0.000607201
0.000606641
0.000619172
0.000611195
0.000566798
0.000547414
0.000547958
0.00055083
0.000512673
0.000445029
0.00038112
0.000330933
0.000322158
0.000367036
0.000454931
0.000635782
0.000900761
0.000850198
0.000973597
0.00109931
0.000926644
0.000947453
0.000974635
0.00100581
0.00104995
0.00122419
0.00111321
0.00115067
0.00133
0.00116905
0.00117171
0.00116002
0.00115162
0.00114516
0.00116302
0.00122345
0.00131425
0.00150283
0.00159486
0.00147423
0.00146789
0.00133276
0.00118434
0.000309008
2.87789e-05
1.19828e-05
3.95482e-06
1.69752e-06
4.62781e-07
2.59671e-07
2.09266e-10
0
0
0
0
0
0
0
0
0
0
0
0
0
0
0
0
0
0
0
0
0
0
0
0
0
0
0
0
0
0
0
0
0
0
0
0
0
0
0
0
0
0
0
0
0
0
0
0
0.000641386
0.000626863
0.000608681
0.000601087
0.000610701
0.000608247
0.000588454
0.000553976
0.000493255
0.000405524
0.000320229
0.000255197
0.00021231
0.000201761
0.000229496
0.000302558
0.000435832
0.000581877
0.000720637
0.000991192
0.00100678
0.000876592
0.000937559
0.00116252
0.00114575
0.00102421
0.0010403
0.00104423
0.00107384
0.00124047
0.00123621
0.00106038
0.00104244
0.00103712
0.00127646
0.00108359
0.00119036
0.00133482
0.0013876
0.00140551
0.00145309
0.00141373
0.00124769
0.000869457
0.000134705
2.41303e-05
9.68638e-06
3.49436e-06
1.6421e-06
7.46643e-07
3.32826e-07
2.94153e-07
0
0
0
0
0
0
0
0
0
0
0
0
0
0
0
0
0
0
0
0
0
0
0
0
0
0
0
0
0
0
0
0
0
0
0
0
0
0
0
0
0
0
0
0
0
0
0
0
0.000641641
0.000633789
0.000616248
0.000591306
0.000573295
0.000562266
0.000527767
0.00046558
0.000379732
0.000289721
0.0002215
0.000173915
0.000144463
0.000132549
0.000147793
0.000198376
0.000289923
0.000472436
0.000582417
0.000703001
0.000784183
0.000843959
0.000912573
0.000972926
0.00098783
0.00100608
0.00112753
0.00098269
0.000975609
0.000966742
0.00095206
0.00114867
0.00114065
0.000959021
0.000985837
0.00103833
0.00113243
0.00125166
0.00132429
0.00137506
0.00140367
0.00136533
0.00113251
0.000687387
8.13585e-05
2.00973e-05
7.82611e-06
3.23977e-06
1.46543e-06
4.57579e-07
3.40432e-07
3.24731e-07
0
0
0
0
0
0
0
0
0
0
0
0
0
0
0
0
0
0
0
0
0
0
0
0
0
0
0
0
0
0
0
0
0
0
0
0
0
0
0
0
0
0
0
0
0
0
0
0
0.00064092
0.000631476
0.000611282
0.000575121
0.000527828
0.000471178
0.000396355
0.000306742
0.00023294
0.000171674
0.000134523
0.000112605
9.79734e-05
9.01477e-05
9.63494e-05
0.000130798
0.000200786
0.000308176
0.000488942
0.000606308
0.000915819
0.000833364
0.000904363
0.000942721
0.000963165
0.000974297
0.000953109
0.000910074
0.000882727
0.000861483
0.000852973
0.00104603
0.000872862
0.000884056
0.000923593
0.00100212
0.00123176
0.00117592
0.00130007
0.00134458
0.00136582
0.00145755
0.00100754
0.000499694
5.28309e-05
1.68174e-05
6.46516e-06
2.69608e-06
9.10758e-07
3.84731e-07
3.27547e-07
9.44895e-08
0
0
0
0
0
0
0
0
0
0
0
0
0
0
0
0
0
0
0
0
0
0
0
0
0
0
0
0
0
0
0
0
0
0
0
0
0
0
0
0
0
0
0
0
0
0
0
0
0.000637787
0.000619273
0.000589408
0.0005377
0.000459664
0.000361457
0.000258699
0.000179596
0.00012586
9.48102e-05
7.89914e-05
7.20029e-05
6.70901e-05
6.31445e-05
6.56275e-05
8.69664e-05
0.00013944
0.000226888
0.00038105
0.000510448
0.00064683
0.000783408
0.000897189
0.000912285
0.000916461
0.00105096
0.00102968
0.000828617
0.00078834
0.000763661
0.000761604
0.000777857
0.000795154
0.00082389
0.000879127
0.000970628
0.0010574
0.00114033
0.00121252
0.00131156
0.00131956
0.0012356
0.000855209
0.000435649
3.81784e-05
1.42462e-05
5.28239e-06
2.13892e-06
6.36354e-07
3.6147e-07
2.01745e-07
0
0
0
0
0
0
0
0
0
0
0
0
0
0
0
0
0
0
0
0
0
0
0
0
0
0
0
0
0
0
0
0
0
0
0
0
0
0
0
0
0
0
0
0
0
0
0
0
0
0.000628685
0.000587128
0.000537678
0.000469118
0.000369302
0.000256032
0.000158116
9.97456e-05
6.8032e-05
5.26603e-05
4.79546e-05
4.75066e-05
4.74636e-05
4.66726e-05
4.78905e-05
6.03209e-05
9.69211e-05
0.000167276
0.000273981
0.000432935
0.000543694
0.00068357
0.000982089
0.000834633
0.000837499
0.000806797
0.000774281
0.00073953
0.000695898
0.000672202
0.000676849
0.000696789
0.000726785
0.000981126
0.000970744
0.000932838
0.00100814
0.00110111
0.00118319
0.00127282
0.00126262
0.00113523
0.000697849
0.000210543
2.98259e-05
1.22849e-05
4.50461e-06
1.67483e-06
4.95702e-07
3.4019e-07
1.80197e-07
0
0
0
0
0
0
0
0
0
0
0
0
0
0
0
0
0
0
0
0
0
0
0
0
0
0
0
0
0
0
0
0
0
0
0
0
0
0
0
0
0
0
0
0
0
0
0
0
0
0.000605164
0.000515734
0.000439221
0.000367115
0.000269167
0.000164633
9.34663e-05
5.61365e-05
3.82824e-05
3.16398e-05
3.13947e-05
3.33748e-05
3.52595e-05
3.66955e-05
3.83807e-05
4.52791e-05
6.86207e-05
0.000121429
0.000206944
0.000345242
0.000460363
0.000569228
0.000675743
0.000727782
0.000918818
0.00069802
0.000661707
0.000824267
0.000607436
0.000586494
0.000598209
0.000624178
0.000664581
0.00072176
0.000802738
0.000884586
0.000952472
0.00106104
0.00115017
0.00118285
0.00117275
0.00103307
0.000531152
0.000177747
2.49054e-05
1.04144e-05
3.98036e-06
1.27958e-06
4.22719e-07
2.90464e-07
2.90154e-11
0
0
0
0
0
0
0
0
0
0
0
0
0
0
0
0
0
0
0
0
0
0
0
0
0
0
0
0
0
0
0
0
0
0
0
0
0
0
0
0
0
0
0
0
0
0
0
0
0
0.000546891
0.000390487
0.000307383
0.000241836
0.000166231
9.57874e-05
5.38173e-05
3.28544e-05
2.32386e-05
2.10279e-05
2.24394e-05
2.51214e-05
2.79014e-05
3.05597e-05
3.28935e-05
3.71567e-05
5.12551e-05
8.77993e-05
0.000155112
0.000253245
0.00042156
0.000464179
0.000543437
0.000604708
0.000789698
0.00058811
0.000555177
0.000550132
0.000518462
0.000506445
0.000526752
0.000557178
0.000605714
0.000672225
0.000751914
0.000822389
0.000897913
0.0010208
0.00111287
0.00113305
0.00125943
0.000902342
0.000374077
8.27358e-05
2.08547e-05
8.5356e-06
3.42951e-06
9.59986e-07
3.68536e-07
2.73324e-07
0
0
0
0
0
0
0
0
0
0
0
0
0
0
0
0
0
0
0
0
0
0
0
0
0
0
0
0
0
0
0
0
0
0
0
0
0
0
0
0
0
0
0
0
0
0
0
0
0
0
0.000427144
0.000228829
0.000159697
0.000122024
8.39888e-05
5.1875e-05
3.12051e-05
1.996e-05
1.52389e-05
1.51225e-05
1.73331e-05
2.0089e-05
2.30943e-05
2.62007e-05
2.91417e-05
3.25342e-05
4.1106e-05
6.46252e-05
0.000113679
0.000187129
0.000295078
0.000384012
0.00042925
0.000480418
0.00049953
0.000486135
0.000627102
0.000452798
0.000436132
0.000432966
0.000463355
0.000496095
0.000556165
0.000622258
0.000685865
0.000753041
0.000850405
0.000986845
0.00106713
0.00107127
0.001003
0.000763302
0.000245593
5.2167e-05
1.74284e-05
6.99312e-06
2.81455e-06
7.0577e-07
3.26005e-07
1.30251e-07
0
0
0
0
0
0
0
0
0
0
0
0
0
0
0
0
0
0
0
0
0
0
0
0
0
0
0
0
0
0
0
0
0
0
0
0
0
0
0
0
0
0
0
0
0
0
0
0
0
0
0.000232615
8.59888e-05
5.81059e-05
4.84941e-05
3.78072e-05
2.62031e-05
1.75858e-05
1.26365e-05
1.07405e-05
1.1895e-05
1.41543e-05
1.67324e-05
1.96419e-05
2.28294e-05
2.61254e-05
2.94607e-05
3.50236e-05
4.98267e-05
8.30023e-05
0.000136143
0.000201754
0.000296387
0.000345256
0.000374012
0.00039945
0.000527571
0.000492482
0.000368043
0.000360388
0.0003664
0.000494264
0.000443456
0.000516689
0.000565461
0.000612925
0.000695291
0.000812688
0.000957821
0.00100637
0.000988143
0.000883993
0.000593837
0.000148575
4.82805e-05
1.47168e-05
5.65957e-06
2.33947e-06
5.58106e-07
2.63524e-07
1.68601e-08
8.27704e-10
0
0
0
0
0
0
0
0
0
0
0
0
0
0
0
0
0
0
0
0
0
0
0
0
0
0
0
0
0
0
0
0
0
0
0
0
0
0
0
0
0
0
0
0
0
0
0
0
0
6.4036e-06
8.75419e-06
1.03209e-05
1.12047e-05
1.08946e-05
9.538e-06
8.01544e-06
7.11939e-06
7.36297e-06
9.00642e-06
1.10242e-05
1.34025e-05
1.62701e-05
1.93615e-05
2.27803e-05
2.6209e-05
3.00288e-05
3.71333e-05
5.27577e-05
7.96887e-05
0.000115216
0.000159672
0.000219588
0.000256063
0.000264324
0.000262804
0.000257029
0.000254827
0.000256898
0.000271296
0.000309765
0.000368517
0.000396519
0.000437579
0.000507653
0.000608382
0.000753288
0.000905023
0.000899221
0.000851126
0.000695148
0.000339332
0.00011411
2.42767e-05
1.04388e-05
3.71264e-06
1.13473e-06
3.4513e-07
8.27931e-10
0
0
0
0
0
0
0
0
0
0
0
0
0
0
0
0
0
0
0
0
0
0
0
0
0
0
0
0
0
0
0
0
0
0
0
0
0
0
0
0
0
0
0
0
0
0
0
0
0
0
0
6.29052e-07
1.38497e-06
2.13701e-06
2.71792e-06
3.12585e-06
3.383e-06
3.59823e-06
4.03052e-06
5.0726e-06
6.66534e-06
8.39425e-06
1.01084e-05
1.25023e-05
1.533e-05
1.82928e-05
2.13507e-05
2.43352e-05
2.78304e-05
3.37661e-05
4.41599e-05
5.92162e-05
7.86489e-05
0.000103618
0.000131981
0.0001556
0.00016612
0.000169969
0.000168702
0.000167512
0.000174619
0.000202183
0.000248114
0.000275751
0.000327209
0.000404854
0.000525885
0.000689869
0.000793074
0.000737649
0.000645284
0.000426873
0.000197333
4.84832e-05
1.67631e-05
6.43094e-06
2.24712e-06
5.82465e-07
7.51994e-08
0
0
0
0
0
0
0
0
0
0
0
0
0
0
0
0
0
0
0
0
0
0
0
0
0
0
0
0
0
0
0
0
0
0
0
0
0
0
0
0
0
0
0
0
0
0
0
0
0
0
0
0
7.7358e-08
2.78994e-07
5.42555e-07
8.50276e-07
1.16752e-06
1.51589e-06
1.96668e-06
2.63274e-06
3.6906e-06
5.06264e-06
6.53352e-06
7.9985e-06
9.6617e-06
1.21392e-05
1.46583e-05
1.70511e-05
1.92188e-05
2.11955e-05
2.35457e-05
2.71955e-05
3.23705e-05
3.98697e-05
4.98797e-05
6.31861e-05
7.73222e-05
9.07286e-05
0.000101661
0.000104437
0.000107257
0.000111738
0.000128871
0.000155989
0.000204778
0.000254183
0.000333601
0.000462717
0.000634224
0.000626628
0.000550171
0.000406688
0.000195035
5.15919e-05
2.43805e-05
1.08057e-05
3.82837e-06
1.24579e-06
3.65897e-07
1.43771e-10
0
0
0
0
0
0
0
0
0
0
0
0
0
0
0
0
0
0
0
0
0
0
0
0
0
0
0
0
0
0
0
0
0
0
0
0
0
0
0
0
0
0
0
0
0
0
0
0
0
0
0
0
1.41482e-08
6.44899e-08
1.59337e-07
3.07581e-07
5.37169e-07
8.60232e-07
1.30321e-06
1.92205e-06
2.8069e-06
3.92264e-06
5.15555e-06
6.4419e-06
7.87532e-06
9.72852e-06
1.20225e-05
1.39822e-05
1.55458e-05
1.66948e-05
1.76115e-05
1.87109e-05
2.04054e-05
2.3196e-05
2.72314e-05
3.31729e-05
4.09591e-05
5.10147e-05
5.902e-05
6.59448e-05
7.58416e-05
8.38527e-05
9.80352e-05
0.000110162
0.000159627
0.00020715
0.000288379
0.000418403
0.000514774
0.000457246
0.000350382
0.000188599
6.4057e-05
2.98733e-05
1.58264e-05
6.49563e-06
2.41991e-06
7.07749e-07
2.06739e-07
0
0
0
0
0
0
0
0
0
0
0
0
0
0
0
0
0
0
0
0
0
0
0
0
0
0
0
0
0
0
0
0
0
0
0
0
0
0
0
0
0
0
0
0
0
0
0
0
0
0
0
0
0
0
1.84068e-08
5.82491e-08
1.55798e-07
3.32343e-07
6.04956e-07
1.0024e-06
1.52713e-06
2.20574e-06
3.09233e-06
4.11185e-06
5.2445e-06
6.59461e-06
8.26607e-06
1.01738e-05
1.19919e-05
1.33152e-05
1.41246e-05
1.46028e-05
1.49804e-05
1.55294e-05
1.65877e-05
1.84454e-05
2.16693e-05
2.64704e-05
3.31113e-05
4.01123e-05
4.93353e-05
5.93652e-05
6.64818e-05
7.68258e-05
8.56805e-05
0.000133991
0.000179615
0.000261382
0.000386701
0.000356296
0.000289573
0.000176999
6.1901e-05
2.95365e-05
2.06788e-05
1.00887e-05
3.62516e-06
1.17106e-06
3.87529e-07
1.70839e-09
0
0
0
0
0
0
0
0
0
0
0
0
0
0
0
0
0
0
0
0
0
0
0
0
0
0
0
0
0
0
0
0
0
0
0
0
0
0
0
0
0
0
0
0
0
0
0
0
0
0
0
0
0
0
3.42385e-09
3.81365e-08
1.11118e-07
2.55684e-07
4.80927e-07
7.81964e-07
1.19331e-06
1.69444e-06
2.39888e-06
3.2688e-06
4.80416e-06
6.78055e-06
9.09431e-06
1.11687e-05
1.29403e-05
1.4015e-05
1.444e-05
1.43988e-05
1.41009e-05
1.38435e-05
1.39345e-05
1.47095e-05
1.65934e-05
1.99807e-05
2.53153e-05
3.12668e-05
4.04703e-05
4.911e-05
5.45304e-05
6.26469e-05
7.93394e-05
0.000125422
0.000173388
0.000244391
0.000268874
0.000218632
0.000140628
7.43712e-05
2.6461e-05
2.19185e-05
1.2625e-05
5.41629e-06
2.03356e-06
5.67618e-07
7.63916e-08
0
0
0
0
0
0
0
0
0
0
0
0
0
0
0
0
0
0
0
0
0
0
0
0
0
0
0
0
0
0
0
0
0
0
0
0
0
0
0
0
0
0
0
0
0
0
0
0
0
0
0
0
0
0
0
7.93828e-10
2.54919e-08
7.75012e-08
1.75863e-07
3.10921e-07
4.88571e-07
7.16923e-07
1.07911e-06
1.72422e-06
3.19719e-06
5.29773e-06
7.62807e-06
1.04415e-05
1.29682e-05
1.47529e-05
1.57226e-05
1.58271e-05
1.52665e-05
1.43524e-05
1.34304e-05
1.28441e-05
1.2982e-05
1.41807e-05
1.71174e-05
2.21436e-05
2.78784e-05
3.59064e-05
4.22983e-05
4.54999e-05
5.52193e-05
8.29218e-05
0.000108686
0.000134528
0.000166703
0.000166667
0.000108038
5.05032e-05
3.05252e-05
1.78267e-05
1.3315e-05
7.13063e-06
2.84623e-06
9.0402e-07
3.33125e-07
0
0
0
0
0
0
0
0
0
0
0
0
0
0
0
0
0
0
0
0
0
0
0
0
0
0
0
0
0
0
0
0
0
0
0
0
0
0
0
0
0
0
0
0
0
0
0
0
0
0
0
0
0
0
0
0
0
1.01674e-08
3.11793e-08
7.14098e-08
1.20486e-07
1.63366e-07
2.17316e-07
4.10137e-07
1.19924e-06
2.97329e-06
5.39488e-06
7.99354e-06
1.11675e-05
1.45227e-05
1.66371e-05
1.7699e-05
1.76263e-05
1.66177e-05
1.51317e-05
1.36468e-05
1.26077e-05
1.24113e-05
1.3473e-05
1.65556e-05
2.16421e-05
2.68239e-05
3.24152e-05
3.71985e-05
4.49121e-05
5.23402e-05
6.07716e-05
6.85985e-05
8.32016e-05
9.97088e-05
8.766e-05
4.35975e-05
1.9624e-05
1.87611e-05
1.16349e-05
7.47379e-06
3.43302e-06
1.38144e-06
4.87533e-07
1.80447e-07
0
0
0
0
0
0
0
0
0
0
0
0
0
0
0
0
0
0
0
0
0
0
0
0
0
0
0
0
0
0
0
0
0
0
0
0
0
0
0
0
0
0
0
0
0
0
0
0
0
0
0
0
0
0
0
0
0
0
1.4485e-08
3.33515e-08
5.32802e-08
9.64137e-08
1.18428e-07
1.41968e-07
6.31387e-07
2.35614e-06
4.87253e-06
7.62078e-06
1.10384e-05
1.50821e-05
1.78385e-05
1.93131e-05
1.92658e-05
1.79253e-05
1.59332e-05
1.39631e-05
1.25616e-05
1.21406e-05
1.3119e-05
1.62687e-05
2.15623e-05
2.68152e-05
3.16459e-05
3.72225e-05
4.02284e-05
4.02621e-05
3.94405e-05
4e-05
4.48675e-05
5.1135e-05
3.93564e-05
1.91203e-05
1.31076e-05
1.25174e-05
7.02195e-06
3.47241e-06
1.70167e-06
5.95359e-07
2.90122e-07
0
0
0
0
0
0
0
0
0
0
0
0
0
0
0
0
0
0
0
0
0
0
0
0
0
0
0
0
0
0
0
0
0
0
0
0
0
0
0
0
0
0
0
0
0
0
0
0
0
0
0
0
0
0
0
0
0
0
0
4.22776e-09
1.0785e-08
2.79055e-08
5.24793e-08
7.44814e-08
9.70586e-08
3.18577e-07
1.62197e-06
4.03284e-06
6.84364e-06
1.04652e-05
1.48638e-05
1.82159e-05
2.02133e-05
2.03892e-05
1.89056e-05
1.65486e-05
1.42032e-05
1.2519e-05
1.19065e-05
1.27205e-05
1.56206e-05
2.0956e-05
2.82022e-05
3.36381e-05
3.23926e-05
2.85593e-05
2.54059e-05
2.2566e-05
2.05348e-05
2.21855e-05
2.37881e-05
1.99559e-05
1.32053e-05
9.65343e-06
7.73151e-06
3.70726e-06
1.78105e-06
6.91933e-07
3.07637e-07
9.96284e-10
0
0
0
0
0
0
0
0
0
0
0
0
0
0
0
0
0
0
0
0
0
0
0
0
0
0
0
0
0
0
0
0
0
0
0
0
0
0
0
0
0
0
0
0
0
0
0
0
0
0
0
0
0
0
0
0
0
0
0
0
3.68313e-09
1.03332e-08
2.60063e-08
4.26819e-08
6.30715e-08
1.88302e-07
9.54082e-07
3.05503e-06
5.75459e-06
9.47679e-06
1.4008e-05
1.78027e-05
2.02968e-05
2.08478e-05
1.94543e-05
1.69428e-05
1.43687e-05
1.24772e-05
1.16252e-05
1.21697e-05
1.4598e-05
1.90233e-05
2.34395e-05
2.354e-05
2.07092e-05
1.77643e-05
1.55104e-05
1.4295e-05
1.35251e-05
1.57919e-05
1.42236e-05
1.39344e-05
1.01921e-05
6.69778e-06
4.21825e-06
2.0289e-06
7.49118e-07
3.49363e-07
2.69606e-09
0
0
0
0
0
0
0
0
0
0
0
0
0
0
0
0
0
0
0
0
0
0
0
0
0
0
0
0
0
0
0
0
0
0
0
0
0
0
0
0
0
0
0
0
0
0
0
0
0
0
0
0
0
0
0
0
0
0
0
0
0
0
4.14559e-09
1.06951e-08
2.15066e-08
3.50183e-08
1.30316e-07
4.79128e-07
2.05062e-06
4.6562e-06
8.12949e-06
1.25963e-05
1.66823e-05
1.95843e-05
2.06099e-05
1.95444e-05
1.71274e-05
1.45006e-05
1.24699e-05
1.14707e-05
1.16974e-05
1.30455e-05
1.50367e-05
1.61734e-05
1.52983e-05
1.34257e-05
1.18791e-05
1.17542e-05
1.38631e-05
1.25894e-05
1.2401e-05
1.12671e-05
1.01479e-05
6.99453e-06
3.83928e-06
2.12953e-06
8.79963e-07
4.19643e-07
7.29341e-08
0
0
0
0
0
0
0
0
0
0
0
0
0
0
0
0
0
0
0
0
0
0
0
0
0
0
0
0
0
0
0
0
0
0
0
0
0
0
0
0
0
0
0
0
0
0
0
0
0
0
0
0
0
0
0
0
0
0
0
0
0
0
0
0
0
1.02661e-08
1.51999e-08
6.92868e-08
2.83193e-07
1.11787e-06
3.36605e-06
6.35694e-06
1.06131e-05
1.49107e-05
1.81107e-05
1.96534e-05
1.91367e-05
1.7087e-05
1.46189e-05
1.2639e-05
1.15353e-05
1.11895e-05
1.13283e-05
1.17896e-05
1.18419e-05
1.09519e-05
1.00334e-05
1.01207e-05
1.13228e-05
1.31518e-05
1.18436e-05
9.46857e-06
8.96748e-06
6.8319e-06
3.93772e-06
1.91416e-06
8.97711e-07
4.34679e-07
1.34097e-07
0
0
0
0
0
0
0
0
0
0
0
0
0
0
0
0
0
0
0
0
0
0
0
0
0
0
0
0
0
0
0
0
0
0
0
0
0
0
0
0
0
0
0
0
0
0
0
0
0
0
0
0
0
0
0
0
0
0
0
0
0
0
0
0
0
0
2.4546e-09
5.48099e-09
2.85005e-08
1.39037e-07
4.95913e-07
2.00737e-06