/*--------------------------------*- C++ -*----------------------------------*\
  =========                 |
  \\      /  F ield         | OpenFOAM: The Open Source CFD Toolbox
   \\    /   O peration     | Website:  https://openfoam.org
    \\  /    A nd           | Version:  6
     \\/     M anipulation  |
\*---------------------------------------------------------------------------*/
FoamFile
{
    version     2.0;
    format      ascii;
    class       volScalarField;
    location    "0.005";
    object      H2O;
}
// * * * * * * * * * * * * * * * * * * * * * * * * * * * * * * * * * * * * * //

dimensions      [0 0 0 0 0 0 0];

internalField   nonuniform List<scalar> 
8000
(
2.82227e-06
2.82976e-06
2.8359e-06
2.8497e-06
2.91919e-06
3.65339e-06
9.56423e-06
2.69109e-05
4.5859e-05
6.28251e-05
7.91212e-05
9.46465e-05
0.000110094
0.000121364
0.000122655
0.000122004
0.000133864
0.000167142
0.000230698
0.00043992
0.00142814
0.00721734
0.0292979
0.033006
0.0556366
0.0853176
0.100324
0.105671
0.106985
0.107948
0.111164
0.116429
0.122437
0.126771
0.13017
0.131843
0.132995
0.133336
0.133525
0.133471
0.133263
0.133386
0.133922
0.133559
0.127473
0.0946056
0.0565175
0.0417367
0.0271235
0.00950074
0.00206289
0.000461882
3.09375e-05
1.94915e-06
0
0
0
0
0
0
0
0
0
0
0
0
0
0
0
0
0
0
0
0
0
0
0
0
0
0
0
0
0
0
0
0
0
0
0
0
0
0
0
0
0
0
0
0
0
0
2.84226e-06
2.88095e-06
2.88001e-06
2.89713e-06
3.02355e-06
4.54131e-06
1.65265e-05
4.34482e-05
7.11836e-05
9.82491e-05
0.000121379
0.000138725
0.00015515
0.000172862
0.000170535
0.00015752
0.000162997
0.000197055
0.000262144
0.000477537
0.00156083
0.0111409
0.119182
0.0531282
0.0607321
0.0903782
0.108016
0.110763
0.108424
0.10804
0.110838
0.116192
0.122395
0.126852
0.1303
0.131883
0.133027
0.133182
0.133524
0.133142
0.133036
0.133382
0.133929
0.133588
0.127715
0.0971293
0.05588
0.0381021
0.0235197
0.00712624
0.00174407
0.000627254
3.55132e-05
2.08064e-06
0
0
0
0
0
0
0
0
0
0
0
0
0
0
0
0
0
0
0
0
0
0
0
0
0
0
0
0
0
0
0
0
0
0
0
0
0
0
0
0
0
0
0
0
0
0
2.92701e-06
8.2734e-05
2.98039e-06
0.000195264
3.48094e-06
8.12339e-06
3.16889e-05
7.31351e-05
0.000957101
0.000182365
0.000221909
0.000244504
0.000256919
0.000300881
0.00237604
0.00185055
0.000223727
0.000282334
0.000368489
0.000571782
0.00135048
0.00553261
0.0340059
0.0289864
0.0452712
0.0858838
0.122471
0.114112
0.107542
0.106317
0.109615
0.11574
0.122397
0.127058
0.130594
0.132257
0.13301
0.133202
0.133308
0.133126
0.133016
0.133162
0.133755
0.133585
0.128659
0.100539
0.0539614
0.0315713
0.00862218
0.00528905
0.00145284
0.000368148
2.108e-05
1.44002e-06
0
0
0
0
0
0
0
0
0
0
0
0
0
0
0
0
0
0
0
0
0
0
0
0
0
0
0
0
0
0
0
0
0
0
0
0
0
0
0
0
0
0
0
0
0
0
2.84614e-06
2.92349e-06
3.17169e-06
4.84227e-06
1.06508e-05
2.09428e-05
4.75523e-05
9.7227e-05
0.000184199
0.00232848
0.000615368
0.000664007
0.000635214
0.00285693
0.000271926
0.000250205
0.000300396
0.000571328
0.00390134
0.000884334
0.00156851
0.00821007
0.0142056
0.0196407
0.0348596
0.0636712
0.0884982
0.100705
0.104315
0.106517
0.109408
0.115825
0.122664
0.127382
0.131053
0.132538
0.132978
0.133277
0.133311
0.132871
0.132982
0.133139
0.133766
0.133664
0.129078
0.0993369
0.0485546
0.0232816
0.0105582
0.00343548
0.00106045
0.000171814
1.289e-05
1.05421e-06
0
0
0
0
0
0
0
0
0
0
0
0
0
0
0
0
0
0
0
0
0
0
0
0
0
0
0
0
0
0
0
0
0
0
0
0
0
0
0
0
0
0
0
0
0
0
2.84625e-06
2.97566e-06
0.00033958
1.81701e-05
0.000587012
4.75918e-05
6.47028e-05
0.000597133
0.0002131
0.00301374
0.0138563
0.0115101
0.00708192
0.000520854
0.00032331
0.00245249
0.000491017
0.00476323
0.00140222
0.00164856
0.00664906
0.00856415
0.00978898
0.0228445
0.0352496
0.0546309
0.0815134
0.116237
0.111114
0.10607
0.108875
0.116255
0.123121
0.128343
0.131452
0.123608
0.132939
0.133092
0.132739
0.13283
0.132945
0.13311
0.133515
0.133663
0.12951
0.0992583
0.0452422
0.0182084
0.00693333
0.00216637
0.000753668
0.000114563
1.31691e-05
1.28117e-06
0
0
0
0
0
0
0
0
0
0
0
0
0
0
0
0
0
0
0
0
0
0
0
0
0
0
0
0
0
0
0
0
0
0
0
0
0
0
0
0
0
0
0
0
0
0
2.85796e-06
2.97764e-06
9.52784e-06
0.000369874
8.63519e-05
0.000514079
8.01277e-05
0.000108005
0.00017027
0.000305927
0.000636858
0.00065933
0.00047122
0.000331917
0.000321429
0.000458269
0.000961242
0.00686114
0.00399116
0.00981096
0.00439985
0.0105168
0.0102235
0.0248552
0.0488502
0.0546099
0.0706141
0.103489
0.0976769
0.0967004
0.105372
0.11705
0.121229
0.128682
0.131645
0.132607
0.132997
0.13277
0.132743
0.132787
0.132913
0.133086
0.122601
0.133745
0.129994
0.101528
0.045597
0.0161691
0.00517403
0.00163887
0.000742078
0.000226712
2.06805e-05
2.18521e-06
0
0
0
0
0
0
0
0
0
0
0
0
0
0
0
0
0
0
0
0
0
0
0
0
0
0
0
0
0
0
0
0
0
0
0
0
0
0
0
0
0
0
0
0
0
0
2.86025e-06
2.96011e-06
4.64291e-06
1.70097e-05
4.00276e-05
5.77482e-05
0.00060008
0.000128376
0.000172096
0.000214858
0.00175188
0.00214797
0.00199828
0.000320458
0.000429722
0.000781581
0.00150878
0.00386587
0.0208787
0.00832574
0.015366
0.00841288
0.017655
0.0272155
0.102886
0.0675186
0.0642299
0.0728555
0.0803526
0.0919986
0.105149
0.116457
0.124194
0.129103
0.131747
0.132482
0.132829
0.132572
0.132763
0.122216
0.132894
0.133069
0.133351
0.133801
0.130534
0.105653
0.0476206
0.0158396
0.0043001
0.00123654
0.000752455
0.000450241
3.54766e-05
3.44387e-06
0
0
0
0
0
0
0
0
0
0
0
0
0
0
0
0
0
0
0
0
0
0
0
0
0
0
0
0
0
0
0
0
0
0
0
0
0
0
0
0
0
0
0
0
0
0
9.67399e-05
0.000153359
4.89248e-06
2.10451e-05
4.2041e-05
0.000514735
0.000125252
0.000217218
0.00229847
0.000280916
0.000268577
0.000272945
0.000312329
0.000528194
0.00392411
0.00546445
0.00918971
0.0159929
0.026712
0.0304566
0.0138906
0.0142442
0.0233326
0.0286528
0.0544964
0.0601097
0.0544088
0.0637949
0.0782768
0.0960493
0.110382
0.120017
0.126223
0.129752
0.13191
0.132616
0.13252
0.132615
0.132811
0.132823
0.132898
0.133049
0.133386
0.133716
0.131122
0.110364
0.0494001
0.00805394
0.00341032
3.02443e-05
2.0867e-05
0.00027373
2.82132e-05
4.43694e-06
0
0
0
0
0
0
0
0
0
0
0
0
0
0
0
0
0
0
0
0
0
0
0
0
0
0
0
0
0
0
0
0
0
0
0
0
0
0
0
0
0
0
0
0
0
0
9.93287e-05
0.000214971
1.15389e-05
5.63393e-05
0.000422066
0.000110664
0.000914969
0.000397226
0.00545911
0.000557251
0.00281658
0.00258245
0.000517469
0.00081996
0.00126288
0.0066073
0.010602
0.0211775
0.091747
0.0338706
0.0230657
0.0317126
0.0233544
0.0428381
0.0578943
0.0464698
0.0517125
0.0641467
0.0857871
0.10647
0.121709
0.123671
0.127934
0.130625
0.131932
0.132534
0.132341
0.132672
0.132883
0.132907
0.12211
0.122165
0.133412
0.133731
0.124088
0.112567
0.0485436
0.0145199
0.003128
0.000684488
0.00069386
0.000183821
2.83072e-05
7.34742e-06
1.55594e-06
0
0
0
0
0
0
0
0
0
0
0
0
0
0
0
0
0
0
0
0
0
0
0
0
0
0
0
0
0
0
0
0
0
0
0
0
0
0
0
0
0
0
0
0
0
2.98496e-06
0.000182052
0.000285395
0.000423687
9.87596e-05
0.000816102
0.00022652
0.000378032
0.000677623
0.00356242
0.000815081
0.00107415
0.00448382
0.00614171
0.0110109
0.00884822
0.00491536
0.0169672
0.0618933
0.0424939
0.035052
0.0394424
0.0371903
0.0427807
0.0460132
0.0485471
0.0565243
0.0696298
0.0888627
0.10884
0.119616
0.126044
0.124399
0.13128
0.132238
0.122523
0.132408
0.132744
0.132973
0.133022
0.122157
0.133119
0.133446
0.133717
0.130375
0.107098
0.0367398
0.0127509
0.00261601
0.000589843
0.000661043
0.000187635
3.9136e-05
1.43677e-05
4.01172e-06
0
0
0
0
0
0
0
0
0
0
0
0
0
0
0
0
0
0
0
0
0
0
0
0
0
0
0
0
0
0
0
0
0
0
0
0
0
0
0
0
0
0
0
0
0
0.000110825
1.95601e-05
6.1556e-05
0.00011082
0.000174201
0.00161487
0.00241889
0.0034796
0.00153946
0.00195333
0.00257299
0.00646277
0.00398664
0.00835952
0.004907
0.00528928
0.00726126
0.0302422
0.0775869
0.092458
0.0490149
0.0712529
0.0540874
0.080914
0.0708465
0.0588298
0.0680592
0.0798258
0.0967201
0.111236
0.121009
0.127017
0.130115
0.131622
0.13225
0.122497
0.132498
0.122386
0.133069
0.133152
0.133165
0.133196
0.133473
0.133794
0.129775
0.103564
0.0411194
0.0111642
0.00239084
2.31074e-05
0.000646504
0.000190633
5.99738e-05
2.90162e-05
1.00911e-05
1.60454e-06
0
0
0
0
0
0
0
0
0
0
0
0
0
0
0
0
0
0
0
0
0
0
0
0
0
0
0
0
0
0
0
0
0
0
0
0
0
0
0
0
0
0
0
0
4.43559e-06
0.000102807
0.000197839
0.0019939
0.000621198
0.00340551
0.00433331
0.00317804
0.00925398
0.0096111
0.0103225
0.0108579
0.012998
0.0168649
0.0109305
0.0110602
0.0135315
0.0341096
0.0754675
0.0783965
0.058388
0.0625261
0.0715261
0.081082
0.0718462
0.0709658
0.0816148
0.0946478
0.106987
0.120037
0.124678
0.12842
0.130893
0.122949
0.132446
0.132349
0.122366
0.132925
0.133164
0.133275
0.133304
0.133247
0.122564
0.13371
0.128933
0.10238
0.0250154
0.00415264
0.0021865
0.000737297
1.43678e-05
0.000229637
9.94712e-05
5.63729e-05
2.47688e-05
4.65162e-06
0
0
0
0
0
0
0
0
0
0
0
0
0
0
0
0
0
0
0
0
0
0
0
0
0
0
0
0
0
0
0
0
0
0
0
0
0
0
0
0
0
0
0
0
7.23303e-05
0.000584182
0.00171924
0.00530013
0.00772775
0.0102056
0.00841405
0.0191023
0.0636202
0.0554522
0.0343942
0.0312488
0.0289338
0.0268849
0.0233357
0.0226401
0.0350791
0.0350158
0.0515361
0.0820962
0.075824
0.0770142
0.0857961
0.102833
0.0831088
0.0836688
0.092069
0.104415
0.113934
0.122986
0.127067
0.129985
0.131312
0.13223
0.132608
0.132502
0.122443
0.122454
0.133242
0.133376
0.133418
0.122312
0.122588
0.133575
0.12773
0.0921374
0.0308286
0.00359136
0.00197169
0.000876782
0.000542068
0.000237489
0.000171896
0.000107683
5.45651e-05
1.4052e-05
0
0
0
0
0
0
0
0
0
0
0
0
0
0
0
0
0
0
0
0
0
0
0
0
0
0
0
0
0
0
0
0
0
0
0
0
0
0
0
0
0
0
0
0
0.000419281
0.0165925
0.0193518
0.0212588
0.0260653
0.0597389
0.0363215
0.032599
0.0533334
0.0535216
0.054511
0.0518405
0.0504961
0.0476861
0.0428825
0.0387922
0.0416903
0.0714108
0.0631751
0.0942325
0.11251
0.0924458
0.0943101
0.0962684
0.10204
0.0979319
0.105664
0.110089
0.119643
0.126581
0.129265
0.13089
0.122873
0.132286
0.132701
0.13271
0.132761
0.122507
0.133291
0.133446
0.13351
0.133412
0.133713
0.133426
0.125455
0.0780716
0.0269907
0.00672775
0.00171649
0.000852086
0.000442345
0.00024959
0.000222945
0.000190033
0.000104092
4.79112e-05
2.42442e-06
0
0
0
0
0
0
0
0
0
0
0
0
0
0
0
0
0
0
0
0
0
0
0
0
0
0
0
0
0
0
0
0
0
0
0
0
0
0
0
0
0
0
0
0.0111793
0.126323
0.111118
0.0920804
0.0681624
0.0927079
0.0583382
0.079123
0.0979091
0.0838128
0.102863
0.0853638
0.09177
0.0769468
0.0910201
0.0622073
0.0559192
0.0574291
0.0703462
0.104991
0.112518
0.107337
0.100095
0.102181
0.104875
0.112077
0.111646
0.11832
0.124891
0.123319
0.123323
0.122957
0.122827
0.122776
0.12268
0.122554
0.132899
0.133178
0.12263
0.133657
0.122587
0.133481
0.122736
0.123822
0.123076
0.0643508
0.0228592
0.00557661
0.00155155
0.00081057
0.000400007
0.000248064
0.000238405
0.000237289
0.00017749
2.51215e-05
1.61839e-06
0
0
0
0
0
0
0
0
0
0
0
0
0
0
0
0
0
0
0
0
0
0
0
0
0
0
0
0
0
0
0
0
0
0
0
0
0
0
0
0
0
0
0
0.0560484
0.0944087
0.102415
0.125247
0.107024
0.107386
0.0831814
0.0905438
0.111391
0.109611
0.117886
0.123053
0.112023
0.102542
0.0930262
0.0811262
0.0728464
0.0706742
0.0822787
0.1057
0.0999624
0.102226
0.106617
0.111101
0.117181
0.118672
0.120884
0.124927
0.12793
0.130323
0.123485
0.131788
0.132321
0.132469
0.132498
0.122484
0.122483
0.132907
0.122732
0.122775
0.133918
0.122536
0.12291
0.132593
0.118388
0.0557867
0.0181385
0.00444058
0.00132835
0.000757523
0.00035905
0.000214554
0.000205966
0.000239968
0.00036261
4.63849e-05
1.84636e-06
0
0
0
0
0
0
0
0
0
0
0
0
0
0
0
0
0
0
0
0
0
0
0
0
0
0
0
0
0
0
0
0
0
0
0
0
0
0
0
0
0
0
0
0.0865626
0.0866364
0.104289
0.118208
0.123013
0.109334
0.101112
0.102464
0.109162
0.124335
0.123615
0.122591
0.124519
0.12065
0.110555
0.10191
0.0932035
0.087728
0.0960337
0.0990533
0.102903
0.107326
0.111895
0.119438
0.123715
0.124065
0.124533
0.124934
0.124945
0.124597
0.131687
0.132022
0.132118
0.131949
0.122601
0.12248
0.122542
0.132126
0.132811
0.122874
0.12288
0.133923
0.123065
0.13136
0.11274
0.035296
0.00683209
0.00350551
0.00112508
0.000710118
0.000247785
0.000121394
9.68956e-05
0.000106466
8.95966e-05
1.0141e-05
0
0
0
0
0
0
0
0
0
0
0
0
0
0
0
0
0
0
0
0
0
0
0
0
0
0
0
0
0
0
0
0
0
0
0
0
0
0
0
0
0
0
0
0
0.10164
0.090504
0.104679
0.115775
0.125002
0.118834
0.109654
0.109459
0.11589
0.125278
0.129304
0.123104
0.123747
0.123838
0.121675
0.113201
0.108277
0.101751
0.107339
0.104299
0.107398
0.112077
0.114014
0.118716
0.122105
0.124123
0.125403
0.1274
0.12876
0.130159
0.131543
0.123062
0.122735
0.131172
0.122164
0.130219
0.130451
0.131357
0.132314
0.133066
0.122969
0.122969
0.133167
0.129811
0.105859
0.0253559
0.010807
0.00274234
0.000972954
0.000528179
0.000118425
5.79238e-05
4.12822e-05
3.35123e-05
1.7758e-05
2.25895e-06
0
0
0
0
0
0
0
0
0
0
0
0
0
0
0
0
0
0
0
0
0
0
0
0
0
0
0
0
0
0
0
0
0
0
0
0
0
0
0
0
0
0
0
0
0.105971
0.0960874
0.101485
0.109731
0.117391
0.114551
0.110121
0.111042
0.117001
0.121864
0.124858
0.125112
0.121233
0.118125
0.117702
0.115286
0.112948
0.11088
0.111232
0.110782
0.113238
0.115261
0.115912
0.117841
0.121507
0.124112
0.125593
0.123209
0.127192
0.129351
0.124025
0.123328
0.130229
0.122148
0.122202
0.127874
0.128278
0.129477
0.123607
0.132672
0.123348
0.133532
0.132411
0.121138
0.0949613
0.0309126
0.00827934
0.00218643
0.000946879
0.000357485
7.44341e-05
3.32503e-05
1.7246e-05
9.64625e-06
3.43273e-06
0
0
0
0
0
0
0
0
0
0
0
0
0
0
0
0
0
0
0
0
0
0
0
0
0
0
0
0
0
0
0
0
0
0
0
0
0
0
0
0
0
0
0
0
0
0.1069
0.101273
0.0997658
0.101488
0.106526
0.107606
0.106545
0.108494
0.112333
0.113822
0.112778
0.110339
0.106886
0.105576
0.107115
0.110818
0.115562
0.116973
0.11603
0.115228
0.116894
0.114988
0.117009
0.117969
0.120069
0.12339
0.124598
0.124977
0.126052
0.123605
0.123189
0.127571
0.121765
0.121394
0.126003
0.125926
0.12274
0.128217
0.125476
0.132151
0.133093
0.123511
0.130747
0.123628
0.0804934
0.0245904
0.00653682
0.00174764
0.000845604
0.000329006
9.88643e-05
3.42517e-05
1.11468e-05
4.25184e-06
1.15353e-06
0
0
0
0
0
0
0
0
0
0
0
0
0
0
0
0
0
0
0
0
0
0
0
0
0
0
0
0
0
0
0
0
0
0
0
0
0
0
0
0
0
0
0
0
0
0.107098
0.104696
0.102401
0.100433
0.100104
0.101398
0.102196
0.103622
0.104766
0.102728
0.0987769
0.0942298
0.0908021
0.0912582
0.095726
0.102001
0.108985
0.111441
0.116196
0.119733
0.116172
0.118201
0.118753
0.119452
0.120332
0.121807
0.118481
0.123719
0.124612
0.12102
0.124533
0.124758
0.124141
0.123754
0.123467
0.123822
0.124914
0.126633
0.125478
0.1257
0.13264
0.132556
0.12907
0.114837
0.0653109
0.0193253
0.00522403
0.00151438
0.000792867
0.00041098
0.000202721
7.27684e-05
1.70066e-05
5.53789e-06
1.98303e-06
0
0
0
0
0
0
0
0
0
0
0
0
0
0
0
0
0
0
0
0
0
0
0
0
0
0
0
0
0
0
0
0
0
0
0
0
0
0
0
0
0
0
0
0
0
0.107112
0.106146
0.104709
0.102827
0.10074
0.0994754
0.098771
0.0976267
0.0952978
0.0900232
0.0835452
0.0780695
0.0753981
0.0772404
0.0830798
0.0911358
0.0997743
0.106981
0.112793
0.114022
0.114387
0.117492
0.119181
0.117296
0.11686
0.121676
0.122088
0.121944
0.122579
0.117339
0.116588
0.121083
0.120127
0.119799
0.117074
0.120934
0.122892
0.122007
0.123507
0.129767
0.131306
0.131202
0.126728
0.111634
0.0576675
0.0153621
0.0041343
0.00131284
0.000738031
0.000510268
0.000288526
0.000247992
3.58044e-05
9.74766e-06
5.33159e-06
2.2408e-06
0
0
0
0
0
0
0
0
0
0
0
0
0
0
0
0
0
0
0
0
0
0
0
0
0
0
0
0
0
0
0
0
0
0
0
0
0
0
0
0
0
0
0
0
0.107038
0.106441
0.105422
0.103883
0.101718
0.0991889
0.0961928
0.0917793
0.0854819
0.076625
0.0682839
0.0627651
0.0611962
0.0640796
0.0709226
0.0802333
0.0903525
0.0988602
0.107356
0.112412
0.115172
0.116958
0.118854
0.120481
0.120892
0.121441
0.116119
0.120204
0.119536
0.118598
0.117602
0.112939
0.112244
0.117006
0.117739
0.118962
0.12097
0.123368
0.126187
0.129006
0.130631
0.130147
0.122823
0.102421
0.0463033
0.012164
0.00329565
0.0011411
0.000692563
0.000421728
0.000301761
0.000301494
5.5685e-05
1.40521e-05
1.13935e-05
8.78419e-06
0
0
0
0
0
0
0
0
0
0
0
0
0
0
0
0
0
0
0
0
0
0
0
0
0
0
0
0
0
0
0
0
0
0
0
0
0
0
0
0
0
0
0
0
0.106868
0.106118
0.104985
0.103168
0.100414
0.096599
0.0908674
0.0827566
0.0725389
0.0618021
0.0533667
0.0490485
0.0488308
0.0525913
0.0599251
0.070022
0.0811574
0.0917788
0.100853
0.108517
0.11183
0.11676
0.118806
0.119815
0.120349
0.120559
0.119584
0.117775
0.116246
0.114683
0.113795
0.109609
0.11382
0.114107
0.115241
0.116938
0.119501
0.122482
0.125119
0.128228
0.129847
0.123016
0.118367
0.0913442
0.0365809
0.00966523
0.00269779
0.00106616
0.000602058
0.000348505
0.00028345
0.000134262
2.64007e-05
1.38387e-05
1.71303e-05
3.17577e-05
2.88306e-06
0
0
0
0
0
0
0
0
0
0
0
0
0
0
0
0
0
0
0
0
0
0
0
0
0
0
0
0
0
0
0
0
0
0
0
0
0
0
0
0
0
0
0
0.106522
0.105225
0.103597
0.100991
0.0968415
0.0906753
0.0813249
0.0695377
0.0574756
0.0471408
0.0404137
0.0377945
0.0388076
0.0431966
0.0506597
0.0608765
0.07258
0.0841514
0.0943487
0.103302
0.110031
0.114995
0.118555
0.118938
0.118918
0.114118
0.112894
0.114688
0.112385
0.110563
0.109854
0.110068
0.110575
0.111558
0.113024
0.114978
0.118264
0.121595
0.124119
0.12738
0.128843
0.126829
0.111685
0.0751826
0.0289474
0.00774095
0.00221986
0.000984535
0.000520171
0.000322961
0.000171832
4.93508e-05
1.37215e-05
1.01996e-05
1.22504e-05
9.8201e-06
1.08862e-06
0
0
0
0
0
0
0
0
0
0
0
0
0
0
0
0
0
0
0
0
0
0
0
0
0
0
0
0
0
0
0
0
0
0
0
0
0
0
0
0
0
0
0
0.105818
0.103351
0.100698
0.0969737
0.090844
0.0814168
0.0687578
0.0550692
0.0434069
0.0349427
0.0303273
0.0292269
0.0311266
0.0358345
0.043191
0.0530371
0.0647569
0.0767383
0.0879771
0.0971593
0.104787
0.110866
0.112886
0.116117
0.115975
0.114428
0.112697
0.110721
0.108146
0.106281
0.105887
0.106371
0.107529
0.107158
0.110194
0.113456
0.117297
0.120829
0.123371
0.126456
0.127497
0.123556
0.103768
0.0671046
0.0225209
0.00625546
0.00185573
0.000885128
0.000446145
0.000300185
0.000161877
2.55419e-05
7.26254e-06
5.96283e-06
5.79948e-06
2.69586e-06
0
0
0
0
0
0
0
0
0
0
0
0
0
0
0
0
0
0
0
0
0
0
0
0
0
0
0
0
0
0
0
0
0
0
0
0
0
0
0
0
0
0
0
0
0.104369
0.0993667
0.0949961
0.0895839
0.081358
0.069332
0.0549672
0.0418493
0.0321095
0.0258902
0.0230119
0.0229784
0.0254094
0.0301928
0.0372627
0.0465366
0.0578002
0.0697279
0.0812309
0.0910124
0.0990773
0.105223
0.10969
0.111641
0.109444
0.109644
0.107408
0.103399
0.103601
0.101894
0.101989
0.10291
0.104627
0.106732
0.108669
0.11223
0.116528
0.120072
0.122545
0.124339
0.124778
0.120125
0.0941268
0.045051
0.0177561
0.00503685
0.00161822
0.000783011
0.000380929
0.0002355
6.63874e-05
1.33287e-05
3.71052e-06
2.76912e-06
1.98321e-06
0
0
0
0
0
0
0
0
0
0
0
0
0
0
0
0
0
0
0
0
0
0
0
0
0
0
0
0
0
0
0
0
0
0
0
0
0
0
0
0
0
0
0
0
0
0.101265
0.0912877
0.083796
0.0770913
0.0676144
0.0549082
0.0415932
0.0308988
0.0236721
0.0193464
0.0177667
0.0184903
0.0211822
0.0258706
0.0325638
0.0412232
0.0517602
0.063238
0.0745341
0.0845684
0.0912766
0.0986172
0.103021
0.105686
0.103452
0.103996
0.101652
0.100722
0.0985543
0.097456
0.0982552
0.0996094
0.101816
0.10424
0.107058
0.111328
0.115791
0.119227
0.121534
0.123147
0.117312
0.114926
0.0832084
0.0459919
0.0138394
0.00400061
0.00141289
0.000682745
0.00031854
0.000212479
4.86079e-05
9.48015e-06
2.01785e-06
1.01796e-06
0
0
0
0
0
0
0
0
0
0
0
0
0
0
0
0
0
0
0
0
0
0
0
0
0
0
0
0
0
0
0
0
0
0
0
0
0
0
0
0
0
0
0
0
0
0
0.0945043
0.0765243
0.0657032
0.0587299
0.0502069
0.0396893
0.0297793
0.0222112
0.0172574
0.0145885
0.0140657
0.0152722
0.0180205
0.0225016
0.0287778
0.0368257
0.0465572
0.0573726
0.0681349
0.0777103
0.0855119
0.0909058
0.0954815
0.0984684
0.0992005
0.0979445
0.0916746
0.094746
0.0934571
0.0930866
0.0947991
0.0964896
0.0990735
0.1022
0.105807
0.110511
0.115004
0.11827
0.120333
0.121566
0.119476
0.108268
0.0717657
0.0362096
0.0106985
0.00319572
0.00124383
0.000585195
0.000273459
0.000145462
5.53379e-05
1.19588e-05
1.80659e-06
0
0
0
0
0
0
0
0
0
0
0
0
0
0
0
0
0
0
0
0
0
0
0
0
0
0
0
0
0
0
0
0
0
0
0
0
0
0
0
0
0
0
0
0
0
0
0
0.0783024
0.0526478
0.0418284
0.0372038
0.0323304
0.0261393
0.020279
0.0157332
0.012788
0.0114537
0.0114592
0.0128952
0.0155919
0.0198049
0.0256436
0.033097
0.0420496
0.052096
0.0621691
0.0710794
0.078292
0.083397
0.087578
0.0907329
0.0923849
0.0866678
0.0857285
0.0889307
0.0883849
0.0889219
0.0872224
0.0935149
0.0964784
0.100343
0.10477
0.109625
0.114153
0.117181
0.11879
0.119107
0.114831
0.0988049
0.0598508
0.0189404
0.00835489
0.00257401
0.00110646
0.000494244
0.000207209
0.000105533
8.68535e-05
1.952e-05
2.52395e-06
0
0
0
0
0
0
0
0
0
0
0
0
0
0
0
0
0
0
0
0
0
0
0
0
0
0
0
0
0
0
0
0
0
0
0
0
0
0
0
0
0
0
0
0
0
0
0
0.00378547
0.00755334
0.0104751
0.0124224
0.0129617
0.0122802
0.0109813
0.00966305
0.00871358
0.0083765
0.00883427
0.0104105
0.0131116
0.0169403
0.0221233
0.0286361
0.0362736
0.0447787
0.0533639
0.0610343
0.0672155
0.0720084
0.0752484
0.0778563
0.0800744
0.0800514
0.0796816
0.0798406
0.0807141
0.0826721
0.0857678
0.0890041
0.0931841
0.0979167
0.102951
0.108068
0.112541
0.115003
0.115846
0.114058
0.105566
0.0806801
0.0318186
0.016814
0.0052356
0.00177516
0.000810599
0.000291788
7.85185e-05
4.75039e-05
5.19295e-05
2.1605e-05
1.2806e-06
0
0
0
0
0
0
0
0
0
0
0
0
0
0
0
0
0
0
0
0
0
0
0
0
0
0
0
0
0
0
0
0
0
0
0
0
0
0
0
0
0
0
0
0
0
0
0
0.000444792
0.0014726
0.00271182
0.00388619
0.00479945
0.00534946
0.00554965
0.00556413
0.00561228
0.00589837
0.00658545
0.00788225
0.0102353
0.0135792
0.0179257
0.0233651
0.0296771
0.0365065
0.0434791
0.0498814
0.0550717
0.0591399
0.0621666
0.0645999
0.0666822
0.0679283
0.0692932
0.0707034
0.0731837
0.0765949
0.0806514
0.0849283
0.0896632
0.0947452
0.100195
0.105508
0.109466
0.111193
0.109828
0.10407
0.0887889
0.0465781
0.0194533
0.010155
0.00323194
0.00127919
0.000524366
0.000133559
3.23843e-05
1.47603e-05
8.90991e-06
1.85197e-06
0
0
0
0
0
0
0
0
0
0
0
0
0
0
0
0
0
0
0
0
0
0
0
0
0
0
0
0
0
0
0
0
0
0
0
0
0
0
0
0
0
0
0
0
0
0
0
0
6.71577e-05
0.000320435
0.000751449
0.00131213
0.00192352
0.00248351
0.00294972
0.00333893
0.00375151
0.00428922
0.00506235
0.00621561
0.00799063
0.0107947
0.0143954
0.0187945
0.0238759
0.0293047
0.0347586
0.0399148
0.0443565
0.0480181
0.0510642
0.0538555
0.0565516
0.0590612
0.0613398
0.0642654
0.0678795
0.0721464
0.0767824
0.0816486
0.0861804
0.0914728
0.0972495
0.102348
0.104951
0.105204
0.100268
0.0886283
0.0673334
0.0381628
0.0190376
0.00612407
0.00205321
0.000919632
0.000321624
7.0108e-05
1.64735e-05
4.46453e-06
1.27392e-06
0
0
0
0
0
0
0
0
0
0
0
0
0
0
0
0
0
0
0
0
0
0
0
0
0
0
0
0
0
0
0
0
0
0
0
0
0
0
0
0
0
0
0
0
0
0
0
0
0
1.3752e-05
7.43473e-05
0.000211637
0.000452957
0.000792258
0.00119192
0.00161487
0.00206354
0.00256168
0.00317584
0.00396578
0.00501314
0.00648274
0.00865042
0.0116542
0.0152134
0.0192579
0.023575
0.0279076
0.0321073
0.0360743
0.039657
0.04296
0.046227
0.0495621
0.0531092
0.0563126
0.0601153
0.0643056
0.0688607
0.0735481
0.0785049
0.0826964
0.0879269
0.093692
0.0980105
0.0990161
0.0961618
0.086592
0.0678802
0.0445479
0.0255781
0.0108624
0.00359385
0.00141884
0.00063928
0.000189609
5.43741e-05
1.50837e-05
2.98551e-06
0
0
0
0
0
0
0
0
0
0
0
0
0
0
0
0
0
0
0
0
0
0
0
0
0
0
0
0
0
0
0
0
0
0
0
0
0
0
0
0
0
0
0
0
0
0
0
0
0
0
2.49034e-06
1.78716e-05
6.3228e-05
0.000165958
0.000343029
0.000593631
0.000910537
0.0012972
0.00178037
0.00238458
0.00315077
0.00412479
0.00542669
0.00724644
0.00968842
0.0126987
0.0160501
0.0196381
0.0233075
0.0269733
0.0306378
0.0342487
0.0378207
0.0414822
0.0453076
0.0492868
0.0533315
0.0576002
0.0619977
0.0664512
0.0707501
0.0749188
0.0786534
0.0835426
0.0889384
0.0918983
0.0904966
0.0833382
0.069505
0.0455261
0.0275496
0.0151119
0.00597194
0.00211294
0.000942076
0.000350666
8.32296e-05
4.21487e-05
2.06771e-05
2.39632e-06
0
0
0
0
0
0
0
0
0
0
0
0
0
0
0
0
0
0
0
0
0
0
0
0
0
0
0
0
0
0
0
0
0
0
0
0
0
0
0
0
0
0
0
0
0
0
0
0
0
0
0
4.79109e-06
2.16641e-05
6.75813e-05
0.000159272
0.00030894
0.000527607
0.000833232
0.00125345
0.00181897
0.00254549
0.0034501
0.00462017
0.00628582
0.00839226
0.0110155
0.0139748
0.0171657
0.0204997
0.0239288
0.0274688
0.0311355
0.0349179
0.0388754
0.0430448
0.0473732
0.0517588
0.056113
0.0603171
0.0642531
0.0677233
0.0706708
0.0734447
0.0776348
0.0824882
0.08443
0.0784289
0.0662145
0.0519874
0.0282778
0.0162229
0.00809887
0.00315875
0.00134691
0.000544152
0.000138204
4.14904e-05
1.78221e-05
4.70793e-06
0
0
0
0
0
0
0
0
0
0
0
0
0
0
0
0
0
0
0
0
0
0
0
0
0
0
0
0
0
0
0
0
0
0
0
0
0
0
0
0
0
0
0
0
0
0
0
0
0
0
0
0
2.0688e-06
8.5014e-06
2.99868e-05
7.83917e-05
0.00016838
0.000317075
0.000549577
0.000901044
0.00140646
0.00208083
0.00292459
0.00399679
0.00559247
0.00758769
0.00995551
0.0126888
0.0156859
0.0188748
0.0222252
0.0257548
0.029497
0.033444
0.0376129
0.0419925
0.0464831
0.0508742
0.0549678
0.058585
0.061592
0.0637758
0.0651145
0.0667674
0.0702854
0.0746453
0.0740909
0.0633154
0.0472041
0.0350077
0.0166073
0.00885647
0.00419231
0.00178155
0.000832391
0.000303982
5.94819e-05
1.84719e-05
5.65492e-06
1.10036e-06
0
0
0
0
0
0
0
0
0
0
0
0
0
0
0
0
0
0
0
0
0
0
0
0
0
0
0
0
0
0
0
0
0
0
0
0
0
0
0
0
0
0
0
0
0
0
0
0
0
0
0
0
0
3.55184e-06
1.37619e-05
3.94595e-05
9.31161e-05
0.000192593
0.00036664
0.000654091
0.00108939
0.00171124
0.00251578
0.00353027
0.005044
0.00706277
0.0093047
0.0119105
0.0148187
0.0179536
0.0212971
0.0248678
0.028691
0.0327602
0.0370523
0.0415033
0.0459466
0.0500553
0.0535465
0.0561623
0.0577422
0.0583882
0.0582365
0.0583153
0.060743
0.0642551
0.0611557
0.0471971
0.0306832
0.0213081
0.00939903
0.0047542
0.00217254
0.00108217
0.000472512
0.000177908
4.49976e-05
1.65011e-05
2.75431e-06
0
0
0
0
0
0
0
0
0
0
0
0
0
0
0
0
0
0
0
0
0
0
0
0
0
0
0
0
0
0
0
0
0
0
0
0
0
0
0
0
0
0
0
0
0
0
0
0
0
0
0
0
0
0
0
4.98192e-06
1.5485e-05
4.31053e-05
0.000105849
0.000221372
0.00044578
0.000832028
0.00139994
0.00216743
0.00314154
0.00459629
0.00662205
0.00884612
0.0114149
0.0142833
0.0173984
0.020754
0.024368
0.0282514
0.0323802
0.0366879
0.0410495
0.0452113
0.0487283
0.0512313
0.0524339
0.0524499
0.0514655
0.0495456
0.047808
0.0491483
0.0519102
0.047406
0.0324874
0.0186951
0.0119342
0.00523533
0.00247261
0.00128407
0.00059093
0.000254573
6.20731e-05
2.15278e-05
5.75718e-06
0
0
0
0
0
0
0
0
0
0
0
0
0
0
0
0
0
0
0
0
0
0
0
0
0
0
0
0
0
0
0
0
0
0
0
0
0
0
0
0
0
0
0
0
0
0
0
0
0
0
0
0
0
0
0
0
1.59082e-06
4.84053e-06
1.4881e-05
4.37533e-05
0.000114492
0.000277937
0.000603195
0.00111988
0.00184283
0.00278463
0.00420922
0.0062134
0.00844596
0.0110022
0.0138446
0.0169387
0.0202887
0.023909
0.027792
0.0318815
0.0360594
0.0401367
0.043772
0.046389
0.0475807
0.0472423
0.0456189
0.0430732
0.0397088
0.0364242
0.036765
0.0388379
0.034629
0.0210373
0.010925
0.00643266
0.00284973
0.00144192
0.000714952
0.000291916
7.90416e-05
2.8486e-05
7.9845e-06
1.72386e-06
0
0
0
0
0
0
0
0
0
0
0
0
0
0
0
0
0
0
0
0
0
0
0
0
0
0
0
0
0
0
0
0
0
0
0
0
0
0
0
0
0
0
0
0
0
0
0
0
0
0
0
0
0
0
0
0
0
1.45521e-06
4.38625e-06
1.46198e-05
4.72607e-05
0.000144149
0.000395149
0.000856586
0.0015248
0.0024029
0.00377927
0.00573172
0.00795879
0.0104856
0.0132809
0.016321
0.0196151
0.0231675
0.0269467
0.0308557
0.0347191
0.0382922
0.0411935
0.0428105
0.0426622
0.0406922
0.0375292
0.0339118
0.0300237
0.0258475
0.0253432
0.0264796
0.0230739
0.012611
0.00614804
0.00334089
0.00162598
0.000810999
0.000350473
8.8536e-05
3.25162e-05
9.07814e-06
2.28838e-06
0
0
0
0
0
0
0
0
0
0
0
0
0
0
0
0
0
0
0
0
0
0
0
0
0
0
0
0
0
0
0
0
0
0
0
0
0
0
0
0
0
0
0
0
0
0
0
0
0
0
0
0
0
0
0
0
0
0
0
1.26835e-06
4.23175e-06
1.62722e-05
6.18991e-05
0.000220425
0.00060803
0.00121612
0.00204216
0.00328628
0.00512984
0.00730882
0.00975786
0.012457
0.0153842
0.0185435
0.0219215
0.0254546
0.029001
0.0323422
0.0351959
0.0372393
0.0378633
0.0364518
0.0331606
0.0289996
0.0250455
0.0217599
0.0174839
0.015625
0.0163546
0.0138158
0.00715793
0.00337044
0.00180618
0.000933611
0.000438976
0.000140085
3.65225e-05
1.11268e-05
2.79102e-06
0
0
0
0
0
0
0
0
0
0
0
0
0
0
0
0
0
0
0
0
0
0
0
0
0
0
0
0
0
0
0
0
0
0
0
0
0
0
0
0
0
0
0
0
0
0
0
0
0
0
0
0
0
0
0
0
0
0
0
0
0
0
5.0454e-06
2.25013e-05
0.000101905
0.000372581
0.000908979
0.00165543
0.00270188
0.0043776
0.00646283
0.0087727
0.0113118
0.0140538
0.0169866
0.0200695
0.0232024
0.0262162
0.0288842
0.0308525
0.0320071
0.0318637
0.0295538
0.0255025
0.0209592
0.0171948
0.0145047
0.0113
0.00903777
0.00911789
0.00743239
0.003793
0.00184371
0.00100542
0.000476731
0.000171187
5.04784e-05
1.84556e-05
3.94371e-06
0
0
0
0
0
0
0
0
0
0
0
0
0
0
0
0
0
0
0
0
0
0
0
0
0
0
0
0
0
0
0
0
0
0
0
0
0
0
0
0
0
0
0
0
0
0
0
0
0
0
0
0
0
0
0
0
0
0
0
0
0
0
0
1.32453e-06
6.72695e-06
3.86284e-05
0.000180381
0.000594321
0.00125123
0.00212795
0.00352257
0.0054095
0.00752622
0.00983389
0.012311
0.0149206
0.0175852
0.0201837
0.0225556
0.0245374
0.0255303
0.0258952
0.0254383
0.022656
0.018488
0.0141532
0.0109311
0.00889462
0.00697903
0.00496922
0.00457558
0.00356797
0.00193041
0.00102502
0.000491322
0.000178955
4.49258e-05
1.70477e-05
5.23288e-06
1.11633e-06
0
0
0
0
0
0
0
0
0
0
0
0
0
0
0
0
0
0
0
0
0
0
0
0
0
0
0
0
0
0
0
0
0
0
0
0
0
0
0
0
0
0
0
0
0
0
0
0
0
0
0
0
0
0
0
0
0
0
0
0
0
0
0
0
1.81817e-06
1.05937e-05
7.27e-05
0.00030655
0.000835257
0.00158484
0.00259565
0.00416643
0.00606618
0.00809342
0.0102282
0.0124253
0.0145756
0.0165575
0.0182771
0.0197872
0.0197673
0.0194611
0.0185659
0.0161355
0.0125038
0.00890225
0.00643409
0.00493964
0.00382781
0.00254635
0.00213208
0.0016691
0.000967544
0.000478187
0.000168149
4.37227e-05
1.43481e-05
4.97275e-06
1.3574e-06
0
0
0
0
0
0
0
0
0
0
0
0
0
0
0
0
0
0
0
0
0
0
0
0
0
0
0
0
0
0
0
0
0
0
0
0
0
0
0
0
0
0
0
0
0
0
0
0
0
0
0
0
0
0
0
0
0
0
0
0
0
0
0
0
0
0
2.9671e-06
1.68784e-05
0.000100072
0.000440719
0.00103373
0.00182758
0.00292726
0.00443954
0.00619687
0.00795788
0.00968185
0.0112776
0.012644
0.0137352
0.0145183
0.0141144
0.0134223
0.012415
0.0104066
0.00771576
0.00523025
0.00343074
0.00243623
0.00189799
0.00136364
0.00104625
0.000765799
0.000422498
0.000135877
4.06643e-05
1.36938e-05
4.29452e-06
1.30847e-06
0
0
0
0
0
0
0
0
0
0
0
0
0
0
0
0
0
0
0
0
0
0
0
0
0
0
0
0
0
0
0
0
0
0
0
0
0
0
0
0
0
0
0
0
0
0
0
0
0
0
0
0
0
0
0
0
0
0
0
0
0
0
0
0
0
0
0
0
5.09781e-06
2.81404e-05
0.000142972
0.000532222
0.00112153
0.00188914
0.0029013
0.00422745
0.00563831
0.00693628
0.00802366
0.00884364
0.0094057
0.00981595
0.00914958
0.00835137
0.00738577
0.00596327
0.00421014
0.00276478
0.00179613
0.00127419
0.000950229
0.000635841
0.000457078
0.000293867
9.01056e-05
3.45769e-05
1.23706e-05
4.05683e-06
1.20686e-06
0
0
0
0
0
0
0
0
0
0
0
0
0
0
0
0
0
0
0
0
0
0
0
0
0
0
0
0
0
0
0
0
0
0
0
0
0
0
0
0
0
0
0
0
0
0
0
0
0
0
0
0
0
0
0
0
0
0
0
0
0
0
0
0
0
0
0
0
0
1.69248e-06
7.83294e-06
4.15369e-05
0.000179176
0.000537188
0.00106221
0.00172335
0.00249181
0.00343472
0.00430787
0.00506362
0.00555601
0.00578269
0.00575818
0.00528203
0.00461065
0.00388941
0.00306192
0.00215935
0.00144866
0.000931658
0.000614389
0.000410937
0.000244172
0.000105643
5.42314e-05
2.52825e-05
9.88558e-06