/*--------------------------------*- C++ -*----------------------------------*\
  =========                 |
  \\      /  F ield         | OpenFOAM: The Open Source CFD Toolbox
   \\    /   O peration     | Website:  https://openfoam.org
    \\  /    A nd           | Version:  6
     \\/     M anipulation  |
\*---------------------------------------------------------------------------*/
FoamFile
{
    version     2.0;
    format      ascii;
    class       volScalarField;
    location    "0.005";
    object      H2O2;
}
// * * * * * * * * * * * * * * * * * * * * * * * * * * * * * * * * * * * * * //

dimensions      [0 0 0 0 0 0 0];

internalField   nonuniform List<scalar> 
8000
(
1.53791e-17
4.77637e-13
3.13712e-12
3.32611e-11
5.06524e-10
7.64112e-09
6.70338e-08
2.32375e-07
3.94196e-07
5.19842e-07
6.29642e-07
7.28808e-07
8.29356e-07
9.03928e-07
9.12917e-07
9.08989e-07
9.86696e-07
1.19474e-06
1.5334e-06
2.3778e-06
4.9875e-06
1.10964e-05
1.48158e-05
1.64807e-05
1.60114e-05
1.4392e-05
1.35533e-05
1.07445e-05
7.56422e-06
5.32496e-06
3.89679e-06
3.05562e-06
2.45727e-06
2.67435e-06
3.10155e-06
3.9866e-06
5.37956e-06
7.14263e-06
9.29676e-06
1.11209e-05
1.39506e-05
1.33815e-05
8.55771e-06
4.62732e-06
2.36732e-06
4.93362e-06
8.8163e-06
1.18747e-05
1.41846e-05
7.39107e-06
1.45709e-06
1.98933e-07
2.47427e-09
0
0
0
0
0
0
0
0
0
0
0
0
0
0
0
0
0
0
0
0
0
0
0
0
0
0
0
0
0
0
0
0
0
0
0
0
0
0
0
0
0
0
0
0
0
0
0
2.46549e-16
4.40187e-12
1.22378e-11
1.13182e-10
1.1925e-09
1.638e-08
1.34502e-07
3.73514e-07
5.75911e-07
7.54183e-07
9.02498e-07
1.01467e-06
1.1194e-06
1.22855e-06
1.2172e-06
1.13868e-06
1.17234e-06
1.36822e-06
1.68395e-06
2.51839e-06
5.26561e-06
1.32548e-05
2.63817e-06
1.59209e-05
1.7265e-05
1.69162e-05
1.46786e-05
1.06455e-05
7.73776e-06
5.28527e-06
3.84863e-06
3.02709e-06
2.45701e-06
2.72681e-06
3.25e-06
4.36581e-06
5.60859e-06
7.80726e-06
9.52281e-06
1.3686e-05
1.61219e-05
1.36019e-05
8.67888e-06
4.69451e-06
2.40502e-06
4.89902e-06
9.47889e-06
1.23057e-05
1.78891e-05
9.48484e-06
2.23484e-06
3.02367e-07
9.89703e-10
0
0
0
0
0
0
0
0
0
0
0
0
0
0
0
0
0
0
0
0
0
0
0
0
0
0
0
0
0
0
0
0
0
0
0
0
0
0
0
0
0
0
0
0
0
0
0
1.77813e-12
2.48117e-07
1.67461e-12
5.91826e-07
5.3488e-09
5.19234e-08
2.7357e-07
5.86391e-07
3.58248e-06
1.27977e-06
1.48438e-06
1.59707e-06
1.6679e-06
1.87368e-06
9.57159e-06
7.43716e-06
1.52393e-06
1.7894e-06
2.13128e-06
2.84352e-06
4.89383e-06
1.0002e-05
1.56312e-05
1.66054e-05
1.65691e-05
1.53053e-05
5.16223e-05
1.05894e-05
6.92993e-06
4.89051e-06
3.72088e-06
2.986e-06
2.48068e-06
2.86068e-06
3.59758e-06
5.01912e-06
6.37621e-06
8.27858e-06
1.08092e-05
1.42641e-05
1.67193e-05
1.60265e-05
9.68491e-06
5.05309e-06
2.28502e-06
4.84457e-06
5.59296e-05
1.21848e-05
2.61939e-05
6.32879e-06
1.38128e-06
1.73727e-07
3.37189e-10
0
0
0
0
0
0
0
0
0
0
0
0
0
0
0
0
0
0
0
0
0
0
0
0
0
0
0
0
0
0
0
0
0
0
0
0
0
0
0
0
0
0
0
0
0
0
0
2.53892e-16
7.1626e-11
2.21047e-09
1.90108e-08
7.55325e-08
1.73113e-07
4.04564e-07
7.45875e-07
1.29228e-06
9.22743e-06
3.00564e-06
3.1782e-06
3.1004e-06
1.14169e-05
1.75638e-06
1.66156e-06
1.87513e-06
2.8749e-06
1.49884e-05
3.81557e-06
5.40033e-06
2.86271e-05
1.44005e-05
1.58847e-05
1.62405e-05
1.35542e-05
1.07265e-05
8.02184e-06
5.74357e-06
7.92888e-06
3.61099e-06
2.99383e-06
2.57386e-06
3.10364e-06
4.18261e-06
5.93752e-06
7.5065e-06
9.51736e-06
1.14608e-05
1.70947e-05
1.75633e-05
1.67756e-05
1.01315e-05
5.25606e-06
2.36529e-06
4.8148e-06
9.73781e-06
9.96091e-06
8.24532e-06
3.36755e-06
6.70121e-07
6.4279e-08
9.95079e-12
0
0
0
0
0
0
0
0
0
0
0
0
0
0
0
0
0
0
0
0
0
0
0
0
0
0
0
0
0
0
0
0
0
0
0
0
0
0
0
0
0
0
0
0
0
0
0
3.59817e-14
8.34702e-11
1.10589e-06
1.40978e-07
2.0718e-06
3.90788e-07
5.21074e-07
2.24942e-06
1.4493e-06
1.20304e-05
5.11138e-05
4.18072e-05
2.71288e-05
2.7006e-06
1.97235e-06
9.87e-06
2.60109e-06
1.80466e-05
5.13498e-06
5.61936e-06
2.35247e-05
2.92348e-05
1.29992e-05
5.90532e-05
6.05316e-05
1.41273e-05
1.06145e-05
9.43777e-06
6.75131e-06
5.02333e-06
3.87185e-06
3.14433e-06
2.7828e-06
3.19511e-06
5.04046e-06
5.27782e-05
9.43357e-06
1.10985e-05
1.65616e-05
1.82604e-05
1.85663e-05
1.76488e-05
1.30364e-05
5.79361e-06
2.47944e-06
4.73011e-06
9.37628e-06
8.28604e-06
5.05068e-06
1.73903e-06
3.7106e-07
1.57342e-08
0
0
0
0
0
0
0
0
0
0
0
0
0
0
0
0
0
0
0
0
0
0
0
0
0
0
0
0
0
0
0
0
0
0
0
0
0
0
0
0
0
0
0
0
0
0
0
0
1.30787e-12
1.44294e-11
6.18784e-08
1.36209e-06
6.66529e-07
1.81875e-06
6.28982e-07
8.17278e-07
1.21051e-06
1.87391e-06
3.06932e-06
3.15075e-06
2.5201e-06
2.00529e-06
1.96702e-06
2.48257e-06
4.07296e-06
2.44753e-05
9.07624e-06
3.15425e-05
9.46017e-06
3.37993e-05
1.34517e-05
6.1025e-05
5.23247e-05
1.46947e-05
1.15941e-05
1.23199e-05
1.30785e-05
5.58425e-06
4.2403e-06
3.34116e-06
8.14007e-06
3.65667e-06
5.5998e-06
7.96871e-06
1.00928e-05
1.42056e-05
1.74961e-05
1.95397e-05
1.95621e-05
1.85066e-05
7.5304e-05
6.07489e-06
2.61797e-06
4.57597e-06
9.70661e-06
8.04519e-06
3.82892e-06
1.29852e-06
4.35464e-07
9.50149e-08
0
0
0
0
0
0
0
0
0
0
0
0
0
0
0
0
0
0
0
0
0
0
0
0
0
0
0
0
0
0
0
0
0
0
0
0
0
0
0
0
0
0
0
0
0
0
0
0
9.08959e-13
2.14271e-10
1.69275e-08
1.34869e-07
3.37602e-07
4.7279e-07
2.12542e-06
9.50554e-07
1.22448e-06
1.46477e-06
6.92253e-06
8.60061e-06
8.02029e-06
1.96512e-06
2.38021e-06
3.54736e-06
5.41882e-06
9.0953e-06
4.97724e-05
1.28902e-05
4.52207e-05
1.26256e-05
5.0657e-05
1.76229e-05
7.09256e-06
1.42314e-05
1.29625e-05
1.01367e-05
7.88837e-06
5.95915e-06
4.57329e-06
3.85662e-06
3.65616e-06
4.27566e-06
6.2325e-06
9.01201e-06
1.16739e-05
1.69301e-05
1.82432e-05
8.77648e-05
2.04346e-05
1.92698e-05
1.57995e-05
6.21338e-06
2.79533e-06
4.38587e-06
1.04801e-05
9.51345e-06
4.25565e-06
1.36951e-06
6.29628e-07
1.99443e-07
0
0
0
0
0
0
0
0
0
0
0
0
0
0
0
0
0
0
0
0
0
0
0
0
0
0
0
0
0
0
0
0
0
0
0
0
0
0
0
0
0
0
0
0
0
0
0
0
2.95853e-07
4.63144e-07
1.95722e-08
1.75429e-07
3.56519e-07
1.81682e-06
9.31691e-07
1.47965e-06
9.18002e-06
1.79197e-06
1.73804e-06
1.75479e-06
1.92675e-06
2.72827e-06
1.53794e-05
2.08737e-05
3.24096e-05
5.1427e-05
1.86707e-05
5.80021e-05
1.58409e-05
1.5697e-05
5.39193e-05
1.81198e-05
1.59898e-05
4.5832e-05
1.40989e-05
1.11097e-05
8.15047e-06
6.04466e-06
5.03643e-06
4.13507e-06
4.15579e-06
5.05883e-06
7.39093e-06
1.05016e-05
1.49562e-05
1.77318e-05
1.86689e-05
2.07031e-05
2.10653e-05
2.00646e-05
1.58829e-05
6.67192e-06
3.01872e-06
4.21941e-06
1.15063e-05
2.05671e-05
4.53451e-06
1.06802e-07
8.8259e-08
9.86965e-08
0
0
0
0
0
0
0
0
0
0
0
0
0
0
0
0
0
0
0
0
0
0
0
0
0
0
0
0
0
0
0
0
0
0
0
0
0
0
0
0
0
0
0
0
0
0
0
0
3.01482e-07
6.74821e-07
8.35822e-08
4.6833e-07
1.47491e-06
8.37079e-07
3.55858e-06
2.25754e-06
2.13362e-05
2.82782e-06
1.10767e-05
1.0149e-05
2.67559e-06
3.64431e-06
4.82457e-06
2.43114e-05
3.59805e-05
6.0396e-05
1.30754e-05
1.9769e-05
1.84669e-05
5.17435e-05
1.7986e-05
5.54497e-05
4.87225e-05
1.67261e-05
1.43318e-05
1.1015e-05
7.73015e-06
5.93178e-06
6.55206e-06
8.78471e-06
5.08275e-06
6.43255e-06
9.2656e-06
1.23958e-05
1.799e-05
1.83592e-05
1.87531e-05
2.04756e-05
9.12021e-05
8.95593e-05
1.60349e-05
6.67832e-06
2.17064e-05
4.84919e-06
1.28163e-05
1.02265e-05
3.97351e-06
1.11147e-06
5.57383e-07
6.48609e-08
0
0
0
0
0
0
0
0
0
0
0
0
0
0
0
0
0
0
0
0
0
0
0
0
0
0
0
0
0
0
0
0
0
0
0
0
0
0
0
0
0
0
0
0
0
0
0
0
2.31427e-13
6.03972e-07
1.00422e-06
1.42104e-06
7.59537e-07
3.02458e-06
1.52576e-06
2.16203e-06
3.18909e-06
1.35008e-05
3.5846e-06
4.27954e-06
1.64844e-05
2.20988e-05
3.70398e-05
3.07267e-05
1.02275e-05
1.77352e-05
1.87199e-05
2.05612e-05
2.0043e-05
2.03143e-05
1.89641e-05
1.82733e-05
1.75712e-05
1.59001e-05
1.32346e-05
1.01282e-05
7.3587e-06
1.01766e-05
5.0183e-06
5.15751e-06
2.6117e-05
7.29171e-06
1.07806e-05
7.54048e-05
1.90895e-05
1.87516e-05
1.85251e-05
1.97747e-05
8.95562e-05
2.02897e-05
1.59897e-05
6.60088e-06
2.81137e-06
4.76401e-06
6.35509e-05
9.2853e-06
3.48642e-06
1.00971e-06
5.99896e-07
6.48366e-08
0
0
0
0
0
0
0
0
0
0
0
0
0
0
0
0
0
0
0
0
0
0
0
0
0
0
0
0
0
0
0
0
0
0
0
0
0
0
0
0
0
0
0
0
0
0
0
0
3.65749e-07
1.62924e-07
5.25367e-07
8.5368e-07
1.23346e-06
6.23901e-06
9.51288e-06
1.31435e-05
5.15555e-06
5.83784e-06
6.75065e-06
2.10415e-05
8.55344e-06
2.72891e-05
9.80388e-06
1.02202e-05
1.20337e-05
6.90682e-05
2.52599e-05
1.26869e-05
1.94436e-05
3.27403e-05
1.73725e-05
2.41721e-05
3.25692e-05
1.42064e-05
1.16569e-05
9.12096e-06
7.09701e-06
6.23086e-06
5.50148e-06
5.74614e-06
7.18645e-06
8.87631e-06
1.20977e-05
7.61652e-05
1.97071e-05
8.06597e-05
1.80354e-05
1.87688e-05
1.96942e-05
1.98607e-05
1.59575e-05
6.10144e-06
2.73089e-06
5.34319e-06
1.22791e-05
8.34047e-06
2.98367e-06
9.68989e-08
4.8517e-07
6.52497e-08
0
0
0
0
0
0
0
0
0
0
0
0
0
0
0
0
0
0
0
0
0
0
0
0
0
0
0
0
0
0
0
0
0
0
0
0
0
0
0
0
0
0
0
0
0
0
0
0
1.58172e-08
8.21723e-07
1.35107e-06
7.26037e-06
2.96364e-06
1.2368e-05
1.58179e-05
7.49153e-06
1.11894e-05
1.14156e-05
1.17472e-05
1.2184e-05
1.36646e-05
4.18821e-05
1.33481e-05
1.36134e-05
1.50047e-05
6.61546e-05
2.80147e-05
2.56663e-05
1.74898e-05
1.61999e-05
1.4536e-05
1.36305e-05
1.33891e-05
1.19881e-05
9.98863e-06
1.57008e-05
7.14639e-06
1.06809e-05
6.1032e-06
6.90157e-06
8.39161e-06
6.0078e-05
1.21605e-05
1.75975e-05
8.1087e-05
1.84253e-05
1.73004e-05
1.76653e-05
1.84404e-05
1.96348e-05
7.61257e-05
5.94041e-06
2.67251e-06
8.3663e-06
5.31003e-05
1.62677e-05
2.46853e-06
9.87832e-07
6.06684e-08
7.85218e-08
4.52613e-09
0
0
0
0
0
0
0
0
0
0
0
0
0
0
0
0
0
0
0
0
0
0
0
0
0
0
0
0
0
0
0
0
0
0
0
0
0
0
0
0
0
0
0
0
0
0
0
6.56842e-07
2.70893e-06
5.20617e-06
1.7848e-05
2.37897e-05
2.78568e-05
1.16174e-05
4.64184e-05
1.64606e-05
4.53915e-05
4.13657e-05
3.96701e-05
1.50409e-05
4.18549e-05
1.55443e-05
1.63331e-05
5.92797e-05
1.93958e-05
1.98275e-05
2.29592e-05
1.45282e-05
1.33855e-05
1.22051e-05
1.07111e-05
1.12683e-05
1.01163e-05
8.63691e-06
1.27963e-05
6.45655e-06
6.49965e-06
6.95151e-06
8.13132e-06
1.01248e-05
1.0866e-05
1.18317e-05
1.67547e-05
7.75132e-05
7.71434e-05
1.644e-05
1.65807e-05
1.7307e-05
8.43073e-05
7.49994e-05
5.73142e-06
2.63635e-06
1.47639e-05
1.2006e-05
1.456e-05
2.00504e-06
8.73536e-07
3.0148e-07
7.97939e-08
4.965e-08
7.70851e-09
0
0
0
0
0
0
0
0
0
0
0
0
0
0
0
0
0
0
0
0
0
0
0
0
0
0
0
0
0
0
0
0
0
0
0
0
0
0
0
0
0
0
0
0
0
0
2.45917e-06
2.75527e-05
3.02244e-05
3.40078e-05
1.46778e-05
4.55718e-05
5.33093e-05
1.69279e-05
1.70641e-05
1.58729e-05
1.42322e-05
1.36317e-05
1.36166e-05
1.40468e-05
1.48954e-05
1.62999e-05
1.8042e-05
3.33229e-05
1.80099e-05
1.35221e-05
7.60566e-06
1.11797e-05
1.04652e-05
1.01902e-05
1.23479e-05
8.93646e-06
1.29078e-05
7.37171e-06
6.83195e-06
7.63877e-06
8.60056e-06
9.71826e-06
6.25867e-05
1.15536e-05
1.12658e-05
1.36925e-05
1.62508e-05
7.21791e-05
1.54861e-05
1.56182e-05
1.62273e-05
1.81193e-05
1.28885e-05
5.18979e-06
2.9188e-06
7.93681e-06
1.10458e-05
5.15064e-06
1.60486e-06
6.99054e-07
1.91388e-07
8.16854e-08
6.5155e-08
4.87134e-08
4.75241e-09
0
0
0
0
0
0
0
0
0
0
0
0
0
0
0
0
0
0
0
0
0
0
0
0
0
0
0
0
0
0
0
0
0
0
0
0
0
0
0
0
0
0
0
0
0
3.60314e-05
3.60786e-06
8.38916e-06
1.70956e-05
1.33846e-05
1.48433e-05
1.61479e-05
2.54824e-05
1.26957e-05
1.51094e-05
1.82612e-05
1.41797e-05
1.86502e-05
1.2591e-05
1.71847e-05
1.43139e-05
1.58198e-05
1.67857e-05
1.56143e-05
7.59862e-06
7.06799e-06
7.7111e-06
9.07561e-06
9.02042e-06
8.91078e-06
1.62212e-05
7.72408e-06
6.60202e-06
6.76224e-06
4.93378e-05
5.21451e-05
5.89982e-05
6.41262e-05
6.36047e-05
6.33563e-05
6.47148e-05
9.75373e-06
9.33977e-06
6.83731e-05
1.22426e-05
7.28305e-05
1.73038e-05
7.02276e-05
4.24583e-05
2.99046e-06
3.96693e-05
9.95468e-06
4.38187e-06
1.42277e-06
6.435e-07
1.60063e-07
8.05336e-08
6.90874e-08
5.70229e-08
3.53612e-08
0
0
0
0
0
0
0
0
0
0
0
0
0
0
0
0
0
0
0
0
0
0
0
0
0
0
0
0
0
0
0
0
0
0
0
0
0
0
0
0
0
0
0
0
0
1.6896e-05
1.09097e-05
1.08821e-05
2.33356e-05
1.18697e-05
7.17638e-06
1.19424e-05
1.16662e-05
7.14846e-06
1.46416e-05
2.68392e-05
3.0516e-05
1.19665e-05
1.03517e-05
9.78269e-06
1.04607e-05
1.17989e-05
1.30226e-05
1.23504e-05
7.24081e-06
8.86786e-06
7.93747e-06
7.63716e-06
8.00038e-06
1.41354e-05
7.15698e-06
6.72686e-06
6.27512e-06
6.50416e-06
8.03034e-06
4.89345e-05
9.19835e-06
9.77753e-06
8.9859e-06
8.46199e-06
5.8896e-05
5.77043e-05
7.18173e-06
6.21137e-05
6.59558e-05
8.88376e-06
7.54705e-05
6.53595e-05
4.35702e-06
3.55966e-06
9.81757e-06
8.84998e-06
3.6232e-06
1.22842e-06
6.21959e-07
1.38593e-07
7.13137e-08
6.32685e-08
5.9409e-08
1.01265e-07
0
0
0
0
0
0
0
0
0
0
0
0
0
0
0
0
0
0
0
0
0
0
0
0
0
0
0
0
0
0
0
0
0
0
0
0
0
0
0
0
0
0
0
0
0
1.99377e-06
9.20664e-06
7.16272e-06
7.13652e-06
9.1656e-06
9.53793e-06
8.45206e-06
8.50163e-06
1.04759e-05
3.56272e-05
2.2023e-05
7.38406e-05
3.43107e-05
7.68657e-06
6.84731e-06
6.78177e-06
7.80058e-06
9.14356e-06
9.16547e-06
8.44126e-06
7.03979e-06
6.19335e-06
6.11612e-06
9.88247e-06
7.41036e-06
6.03825e-06
1.28769e-05
2.04341e-05
2.54062e-05
3.25783e-05
6.39401e-06
7.2964e-06
7.08432e-06
6.94665e-06
5.06528e-05
4.87017e-05
4.78481e-05
4.54845e-06
5.01894e-06
6.07654e-05
6.38708e-05
9.06514e-06
5.87255e-05
3.67796e-06
7.75034e-06
5.29689e-05
2.23564e-05
2.98301e-06
1.14983e-06
5.76054e-07
9.65861e-08
1.84025e-08
3.88669e-09
7.29757e-09
1.79165e-09
0
0
0
0
0
0
0
0
0
0
0
0
0
0
0
0
0
0
0
0
0
0
0
0
0
0
0
0
0
0
0
0
0
0
0
0
0
0
0
0
0
0
0
0
0
1.43754e-06
5.94844e-06
3.46169e-06
3.00893e-06
4.12643e-06
4.10409e-06
4.86702e-06
4.89683e-06
6.04767e-06
5.96246e-06
1.06127e-05
6.0082e-05
5.00979e-05
1.91442e-05
3.35824e-06
4.01218e-06
5.58537e-06
6.07117e-06
6.3407e-06
6.3121e-06
5.33243e-06
5.74492e-06
4.70842e-06
4.46311e-06
4.72918e-06
4.40128e-06
3.98075e-06
3.57823e-06
3.45071e-06
3.82905e-06
5.10585e-06
4.66351e-05
4.80831e-05
5.08892e-06
4.25637e-05
3.66001e-06
3.2875e-06
3.18128e-06
3.55343e-06
4.57013e-06
5.92128e-05
6.12977e-05
5.4186e-06
3.13594e-06
9.03248e-06
4.68753e-05
6.64391e-06
2.54133e-06
1.06829e-06
2.61178e-07
1.65632e-08
0
0
0
0
0
0
0
0
0
0
0
0
0
0
0
0
0
0
0
0
0
0
0
0
0
0
0
0
0
0
0
0
0
0
0
0
0
0
0
0
0
0
0
0
0
0
0
0
0
1.10813e-06
3.74731e-06
3.45266e-06
1.68553e-06
1.07314e-06
1.77347e-06
1.98478e-06
1.9497e-06
1.92725e-06
1.64627e-06
1.55349e-06
1.3771e-06
9.85939e-06
4.20642e-06
1.29555e-06
1.76699e-06
2.49563e-06
3.58626e-06
4.12859e-06
4.25962e-06
3.64097e-06
3.2527e-06
3.35517e-06
3.47572e-06
3.14539e-06
4.35642e-06
2.44425e-06
5.55106e-06
2.22757e-06
2.58993e-06
2.56306e-05
3.23129e-05
4.23304e-06
3.86046e-05
3.02968e-05
2.2273e-06
1.97546e-06
2.03033e-06
3.88597e-05
3.29226e-06
5.16878e-05
5.03931e-06
4.18286e-06
2.34271e-05
1.42992e-05
9.80888e-06
5.69342e-06
2.07231e-06
7.70411e-07
1.61395e-07
4.39356e-10
0
0
0
0
0
0
0
0
0
0
0
0
0
0
0
0
0
0
0
0
0
0
0
0
0
0
0
0
0
0
0
0
0
0
0
0
0
0
0
0
0
0
0
0
0
0
0
0
0
9.95568e-07
2.14694e-06
3.52707e-06
3.6901e-06
2.23502e-06
1.66138e-06
1.71066e-06
1.46363e-06
1.08536e-06
9.6602e-07
1.09048e-06
1.2876e-06
1.51704e-06
1.55415e-06
1.68863e-06
1.23075e-06
1.13311e-06
1.68212e-06
2.40175e-06
4.183e-06
2.35631e-06
4.50073e-06
2.32638e-06
2.36599e-06
2.26357e-06
1.73833e-06
1.51998e-06
1.43041e-06
1.49581e-06
9.0617e-06
1.60592e-05
2.60232e-06
2.44905e-05
2.52942e-05
2.02335e-06
1.74047e-06
1.62257e-05
1.61417e-06
2.30835e-05
2.54125e-06
3.44713e-06
4.53645e-05
3.05918e-06
2.86053e-06
2.4067e-05
8.94708e-06
4.87556e-06
1.65212e-06
5.89732e-07
1.33715e-07
4.30556e-09
0
0
0
0
0
0
0
0
0
0
0
0
0
0
0
0
0
0
0
0
0
0
0
0
0
0
0
0
0
0
0
0
0
0
0
0
0
0
0
0
0
0
0
0
0
0
0
0
0
9.67961e-07
1.35386e-06
2.06618e-06
3.10888e-06
3.85905e-06
3.51873e-06
3.19618e-06
2.77492e-06
2.37024e-06
2.48424e-06
2.7639e-06
3.04011e-06
3.17329e-06
2.91271e-06
2.38277e-06
1.76079e-06
1.35337e-06
3.55541e-06
1.42192e-06
1.31174e-06
3.78904e-06
1.50137e-06
1.49575e-06
1.51047e-06
1.46724e-06
1.2442e-06
5.9018e-06
1.04534e-06
1.13201e-06
9.6159e-06
1.75323e-06
1.95765e-06
2.01612e-06
1.90486e-06
1.63482e-06
1.4573e-06
1.35619e-06
1.40781e-06
9.06081e-06
2.35161e-05
2.77497e-06
3.28824e-06
2.66798e-06
1.62543e-05
3.56794e-05
8.06026e-06
4.11334e-06
1.42925e-06
6.32591e-07
1.54725e-07
5.36773e-08
1.984e-10
0
0
0
0
0
0
0
0
0
0
0
0
0
0
0
0
0
0
0
0
0
0
0
0
0
0
0
0
0
0
0
0
0
0
0
0
0
0
0
0
0
0
0
0
0
0
0
0
9.67453e-07
1.10564e-06
1.35254e-06
1.85396e-06
2.79347e-06
3.62685e-06
3.93378e-06
4.13093e-06
4.3317e-06
4.84214e-06
5.41853e-06
5.64573e-06
5.32339e-06
4.48941e-06
3.5576e-06
2.72404e-06
2.04716e-06
1.51162e-06
1.18304e-06
3.13668e-06
3.1392e-06
1.13686e-06
1.07472e-06
4.7126e-06
4.78964e-06
8.7722e-07
8.53939e-07
9.27786e-07
1.01627e-06
1.30751e-05
1.63106e-05
1.6498e-06
1.69768e-06
1.64802e-06
1.72066e-05
1.36158e-06
1.33353e-06
4.2684e-06
3.5977e-06
1.54996e-06
2.01404e-06
2.35292e-06
2.43408e-06
3.67366e-06
8.18517e-06
7.28498e-06
3.37805e-06
1.26844e-06
6.0147e-07
3.34627e-07
6.21418e-08
4.24333e-08
0
0
0
0
0
0
0
0
0
0
0
0
0
0
0
0
0
0
0
0
0
0
0
0
0
0
0
0
0
0
0
0
0
0
0
0
0
0
0
0
0
0
0
0
0
0
0
0
9.8068e-07
1.06121e-06
1.18471e-06
1.39228e-06
1.84609e-06
2.56703e-06
3.2366e-06
4.06436e-06
5.12706e-06
6.4645e-06
7.60665e-06
7.92786e-06
7.2455e-06
5.95569e-06
4.66433e-06
3.6316e-06
2.74182e-06
2.50354e-06
1.468e-06
1.11628e-06
9.74833e-07
9.24424e-07
8.78189e-07
8.19842e-07
7.88215e-07
7.07244e-07
5.53645e-06
9.02148e-07
1.0842e-06
1.31702e-06
1.52422e-06
1.96724e-05
2.10564e-05
1.55305e-06
1.4454e-06
1.37102e-06
1.33462e-06
1.36401e-06
1.30754e-06
1.36951e-06
1.68579e-06
2.05042e-06
2.45853e-06
4.40154e-06
8.52721e-06
6.40736e-06
2.76378e-06
1.17545e-06
5.49336e-07
1.67603e-07
6.1256e-08
4.66e-08
0
0
0
0
0
0
0
0
0
0
0
0
0
0
0
0
0
0
0
0
0
0
0
0
0
0
0
0
0
0
0
0
0
0
0
0
0
0
0
0
0
0
0
0
0
0
0
0
1.0075e-06
1.10026e-06
1.20803e-06
1.3432e-06
1.56216e-06
2.00982e-06
2.73218e-06
3.90442e-06
5.67221e-06
7.55595e-06
8.88506e-06
9.21615e-06
8.47696e-06
7.03252e-06
5.56672e-06
4.41387e-06
3.48783e-06
2.62604e-06
2.1698e-06
1.3555e-06
3.38983e-06
8.15819e-07
7.45244e-07
7.26485e-07
7.00918e-07
6.92247e-07
8.06014e-07
1.00408e-06
1.21595e-06
1.44223e-06
1.6e-06
1.65915e-05
1.65451e-06
1.58658e-06
1.49857e-06
1.48006e-06
3.72486e-06
1.22128e-06
1.27616e-06
1.23898e-06
1.48744e-06
1.83538e-05
2.58072e-06
5.21109e-06
8.5461e-06
5.57655e-06
2.30522e-06
9.93709e-07
3.86574e-07
9.41639e-08
5.90778e-08
2.04242e-08
0
0
0
0
0
0
0
0
0
0
0
0
0
0
0
0
0
0
0
0
0
0
0
0
0
0
0
0
0
0
0
0
0
0
0
0
0
0
0
0
0
0
0
0
0
0
0
0
1.05487e-06
1.18872e-06
1.29046e-06
1.4412e-06
1.67549e-06
2.0557e-06
2.82413e-06
4.2922e-06
6.23755e-06
7.94585e-06
9.07831e-06
9.47051e-06
8.96821e-06
7.70901e-06
6.25152e-06
5.04937e-06
4.11332e-06
3.22029e-06
2.7666e-06
1.79813e-06
1.23998e-06
9.04488e-07
7.00797e-07
7.12589e-07
7.4344e-07
5.26747e-06
6.38528e-06
1.18398e-06
1.42364e-06
1.62947e-06
1.74283e-06
1.77033e-06
1.72402e-06
1.64531e-06
1.61851e-06
1.63486e-06
1.4094e-06
1.19807e-06
1.08638e-06
1.14717e-06
1.34297e-06
1.70576e-06
3.15572e-06
2.7665e-05
8.29087e-06
4.8605e-06
1.90269e-06
8.04657e-07
2.74418e-07
7.64457e-08
3.61287e-08
0
0
0
0
0
0
0
0
0
0
0
0
0
0
0
0
0
0
0
0
0
0
0
0
0
0
0
0
0
0
0
0
0
0
0
0
0
0
0
0
0
0
0
0
0
0
0
0
0
1.13505e-06
1.30638e-06
1.46522e-06
1.66563e-06
1.96305e-06
2.4034e-06
3.25181e-06
4.74448e-06
6.29439e-06
7.53098e-06
8.46667e-06
9.0323e-06
8.9115e-06
8.05017e-06
6.77878e-06
5.5785e-06
4.63244e-06
3.79183e-06
2.95689e-06
2.48426e-06
1.66002e-06
1.2126e-06
3.72719e-06
8.97521e-07
9.44219e-07
1.10547e-06
1.27571e-06
1.45247e-06
1.67793e-06
1.85288e-06
1.91702e-06
1.91015e-06
1.83648e-06
9.47756e-06
5.61708e-06
1.7278e-06
1.37211e-06
1.15592e-06
1.06096e-06
1.08083e-06
1.24438e-06
1.71193e-06
3.74515e-06
6.96502e-06
7.82637e-06
4.27032e-06
1.63371e-06
6.40363e-07
1.87139e-07
6.30321e-08
2.87393e-08
0
0
0
0
0
0
0
0
0
0
0
0
0
0
0
0
0
0
0
0
0
0
0
0
0
0
0
0
0
0
0
0
0
0
0
0
0
0
0
0
0
0
0
0
0
0
0
0
0
1.2512e-06
1.5476e-06
1.76071e-06
2.04478e-06
2.39075e-06
2.83023e-06
3.66622e-06
4.8456e-06
5.80395e-06
6.68116e-06
7.55979e-06
8.27956e-06
8.5271e-06
8.11651e-06
7.17995e-06
6.05922e-06
5.08596e-06
4.26983e-06
3.43514e-06
2.98809e-06
2.16986e-06
1.64922e-06
1.34743e-06
1.23297e-06
5.64348e-06
1.44867e-06
1.64732e-06
9.90415e-06
1.96301e-06
2.09652e-06
2.10832e-06
2.07e-06
1.99089e-06
1.94986e-06
2.04208e-06
1.74545e-06
1.28983e-06
1.1183e-06
1.04761e-06
9.85174e-07
1.20915e-06
1.82863e-06
4.43842e-06
4.45428e-05
7.25634e-06
3.66283e-06
1.44806e-06
5.06397e-07
1.24792e-07
4.81433e-08
2.60523e-11
0
0
0
0
0
0
0
0
0
0
0
0
0
0
0
0
0
0
0
0
0
0
0
0
0
0
0
0
0
0
0
0
0
0
0
0
0
0
0
0
0
0
0
0
0
0
0
0
0
1.43075e-06
1.97134e-06
2.32044e-06
2.56264e-06
2.84298e-06
3.18329e-06
3.90872e-06
4.54946e-06
5.10746e-06
5.76836e-06
6.62789e-06
7.45489e-06
7.94979e-06
7.98101e-06
7.44534e-06
6.50703e-06
5.5194e-06
4.68677e-06
3.93845e-06
3.21905e-06
1.43193e-05
2.18326e-06
1.84282e-06
1.67687e-06
8.41083e-06
1.85087e-06
2.04158e-06
2.12621e-06
2.27659e-06
2.35076e-06
2.31325e-06
2.25341e-06
2.17689e-06
2.17987e-06
2.12622e-06
1.64831e-06
1.20895e-06
1.09847e-06
1.05813e-06
9.97843e-07
1.62141e-05
2.20885e-06
5.21786e-06
8.21712e-06
6.53844e-06
3.03896e-06
1.25743e-06
3.97908e-07
9.23551e-08
4.00232e-08
0
0
0
0
0
0
0
0
0
0
0
0
0
0
0
0
0
0
0
0
0
0
0
0
0
0
0
0
0
0
0
0
0
0
0
0
0
0
0
0
0
0
0
0
0
0
0
0
0
0
1.78317e-06
2.56953e-06
2.87951e-06
2.98842e-06
3.16296e-06
3.52486e-06
3.84811e-06
4.04959e-06
4.35046e-06
4.91803e-06
5.78252e-06
6.66334e-06
7.31312e-06
7.6699e-06
7.55171e-06
6.8943e-06
5.95385e-06
5.08558e-06
4.35765e-06
3.68471e-06
3.45031e-06
3.10523e-06
2.44124e-06
2.20313e-06
2.16812e-06
2.26866e-06
1.71252e-05
2.50219e-06
2.58372e-06
2.60747e-06
2.5263e-06
2.46382e-06
2.44728e-06
2.32803e-06
2.02888e-06
1.49723e-06
1.16253e-06
1.12054e-06
1.07995e-06
1.04338e-06
1.42869e-06
2.7123e-06
6.03445e-06
8.29375e-06
5.75519e-06
2.51512e-06
1.04734e-06
3.03279e-07
7.45e-08
2.3965e-08
0
0
0
0
0
0
0
0
0
0
0
0
0
0
0
0
0
0
0
0
0
0
0
0
0
0
0
0
0
0
0
0
0
0
0
0
0
0
0
0
0
0
0
0
0
0
0
0
0
0
2.22362e-06
3.35984e-06
3.68551e-06
3.73215e-06
3.73401e-06
3.62953e-06
3.47834e-06
3.44442e-06
3.68469e-06
4.27567e-06
5.06435e-06
5.93496e-06
6.66515e-06
7.25463e-06
7.48725e-06
7.15038e-06
6.36499e-06
5.4839e-06
4.7408e-06
4.14946e-06
3.67627e-06
3.88124e-06
3.32254e-06
2.7976e-06
2.64363e-06
2.054e-05
1.88352e-05
2.85084e-06
2.88169e-06
2.85465e-06
1.88508e-05
2.73538e-06
2.83092e-06
2.37216e-06
1.82937e-06
1.40399e-06
1.16022e-06
1.18083e-06
1.11642e-06
1.16802e-06
1.76882e-06
3.44123e-06
6.81617e-06
3.32749e-05
5.03217e-06
2.05648e-06
8.82482e-07
2.27319e-07
5.51759e-08
5.12606e-09
6.4497e-10
0
0
0
0
0
0
0
0
0
0
0
0
0
0
0
0
0
0
0
0
0
0
0
0
0
0
0
0
0
0
0
0
0
0
0
0
0
0
0
0
0
0
0
0
0
0
0
0
0
1.26131e-06
2.19932e-06
2.77984e-06
3.01377e-06
2.94491e-06
2.73921e-06
2.59169e-06
2.64131e-06
2.94884e-06
3.48754e-06
4.16152e-06
4.99468e-06
5.8546e-06
6.6247e-06
7.17328e-06
7.27584e-06
6.85759e-06
6.11222e-06
5.361e-06
4.77942e-06
4.36993e-06
4.14904e-06
4.48297e-06
4.22628e-06
3.61376e-06
3.50367e-06
3.4641e-06
3.40328e-06
3.31263e-06
3.18739e-06
3.14411e-06
3.25412e-06
2.5537e-06
1.95824e-06
1.56753e-06
1.28624e-06
1.19865e-06
1.34461e-06
1.21767e-06
1.48906e-06
2.47284e-06
4.71311e-06
4.14273e-05
7.18807e-06
3.69536e-06
1.38181e-06
4.60432e-07
1.06833e-07
6.68363e-10
0
0
0
0
0
0
0
0
0
0
0
0
0
0
0
0
0
0
0
0
0
0
0
0
0
0
0
0
0
0
0
0
0
0
0
0
0
0
0
0
0
0
0
0
0
0
0
0
0
0
0
1.56368e-07
5.16536e-07
9.32879e-07
1.2627e-06
1.44829e-06
1.53762e-06
1.63031e-06
1.82446e-06
2.178e-06
2.67919e-06
3.25066e-06
3.87785e-06
4.71542e-06
5.58395e-06
6.31046e-06
6.75846e-06
6.78739e-06
6.43774e-06
5.89447e-06
5.3734e-06
4.98279e-06
4.72897e-06
4.74554e-06
4.96191e-06
5.00952e-06
4.93563e-06
4.73801e-06
4.41985e-06
3.77171e-06
3.12107e-06
2.87715e-06
2.8132e-06
2.13996e-06
1.71097e-06
1.43936e-06
1.33498e-06
1.46612e-06
1.57795e-06
1.5793e-06
2.23127e-06
3.65863e-06
4.15137e-05
3.22551e-05
5.5936e-06
2.35886e-06
8.69705e-07
2.40803e-07
2.63436e-08
0
0
0
0
0
0
0
0
0
0
0
0
0
0
0
0
0
0
0
0
0
0
0
0
0
0
0
0
0
0
0
0
0
0
0
0
0
0
0
0
0
0
0
0
0
0
0
0
0
0
0
0
2.38335e-08
1.18489e-07
2.73724e-07
4.58988e-07
6.3971e-07
8.0473e-07
9.88264e-07
1.23918e-06
1.59734e-06
2.05537e-06
2.56841e-06
3.12705e-06
3.77346e-06
4.62753e-06
5.39688e-06
5.96142e-06
6.23566e-06
6.19446e-06
5.93562e-06
5.59743e-06
5.30447e-06
5.08469e-06
5.03831e-06
5.09591e-06
5.23438e-06
5.42244e-06
5.48632e-06
4.91585e-06
4.01137e-06
2.98808e-06
2.37121e-06
2.05586e-06
2.05221e-06
1.66762e-06
1.46078e-06
1.55031e-06
2.09527e-06
1.86313e-06
2.26426e-06
3.33166e-06
5.02725e-06
7.23115e-06
7.06622e-06
3.87434e-06
1.45002e-06
5.07647e-07
1.28991e-07
1.32976e-10
0
0
0
0
0
0
0
0
0
0
0
0
0
0
0
0
0
0
0
0
0
0
0
0
0
0
0
0
0
0
0
0
0
0
0
0
0
0
0
0
0
0
0
0
0
0
0
0
0
0
0
0
4.7667e-09
2.78838e-08
7.83149e-08
1.60015e-07
2.75547e-07
4.20254e-07
6.02639e-07
8.48029e-07
1.17415e-06
1.58442e-06
2.05737e-06
2.5755e-06
3.16214e-06
3.86243e-06
4.65045e-06
5.25081e-06
5.61731e-06
5.7445e-06
5.6822e-06
5.52351e-06
5.35552e-06
5.2385e-06
5.20905e-06
5.2357e-06
5.31973e-06
5.44442e-06
5.34597e-06
4.85621e-06
4.28819e-06
3.35945e-06
2.6226e-06
1.81947e-06
2.11227e-06
1.79113e-06
1.71685e-06
2.10755e-06
2.58469e-06
2.44264e-06
3.2334e-06
4.64826e-06
6.29144e-06
7.35502e-06
5.37202e-06
2.41947e-06
9.40491e-07
3.04114e-07
6.56876e-08
0
0
0
0
0
0
0
0
0
0
0
0
0
0
0
0
0
0
0
0
0
0
0
0
0
0
0
0
0
0
0
0
0
0
0
0
0
0
0
0
0
0
0
0
0
0
0
0
0
0
0
0
0
0
6.459e-09
2.17772e-08
5.94829e-08
1.26024e-07
2.28418e-07
3.78218e-07
5.85207e-07
8.68443e-07
1.22874e-06
1.66318e-06
2.16184e-06
2.72546e-06
3.38939e-06
4.11124e-06
4.74949e-06
5.17336e-06
5.3894e-06
5.45519e-06
5.43207e-06
5.37454e-06
5.32645e-06
5.31863e-06
5.34607e-06
5.42636e-06
5.4965e-06
5.35745e-06
5.125e-06
4.57185e-06
3.57979e-06
2.73135e-06
1.90554e-06
2.45061e-06
2.22211e-06
2.38567e-06
3.35875e-06
2.8655e-06
3.29753e-06
4.38628e-06
5.90118e-06
7.12895e-06
6.51195e-06
3.67296e-06
1.39701e-06
4.85703e-07
1.41542e-07
1.35408e-09
0
0
0
0
0
0
0
0
0
0
0
0
0
0
0
0
0
0
0
0
0
0
0
0
0
0
0
0
0
0
0
0
0
0
0
0
0
0
0
0
0
0
0
0
0
0
0
0
0
0
0
0
0
0
7.2769e-10
7.46758e-09
2.42456e-08
6.1858e-08
1.28678e-07
2.33419e-07
3.92511e-07
6.21853e-07
9.38401e-07
1.34369e-06
1.95774e-06
2.68935e-06
3.5462e-06
4.31503e-06
4.96146e-06
5.36819e-06
5.55863e-06
5.59189e-06
5.54523e-06
5.46976e-06
5.41496e-06
5.40012e-06
5.43854e-06
5.52915e-06
5.58987e-06
5.45169e-06
5.25696e-06
4.68487e-06
3.63584e-06
2.79061e-06
2.60146e-06
3.46264e-06
3.5644e-06
3.81116e-06
3.4341e-06
3.54582e-06
4.33251e-06
5.54815e-06
6.59902e-06
6.87338e-06
4.52975e-06
2.06044e-06
8.10667e-07
2.39984e-07
2.91742e-08
0
0
0
0
0
0
0
0
0
0
0
0
0
0
0
0
0
0
0
0
0
0
0
0
0
0
0
0
0
0
0
0
0
0
0
0
0
0
0
0
0
0
0
0
0
0
0
0
0
0
0
0
0
0
0
8.48243e-11
2.6118e-09
9.4602e-09
2.66376e-08
5.88856e-08
1.15999e-07
2.14913e-07
3.86234e-07
6.75492e-07
1.23869e-06
1.98512e-06
2.81025e-06
3.82139e-06
4.73998e-06
5.41417e-06
5.81776e-06
5.95472e-06
5.90319e-06
5.75875e-06
5.60737e-06
5.50008e-06
5.45833e-06
5.50475e-06
5.6113e-06
5.69198e-06
5.53252e-06
5.30836e-06
4.6776e-06
3.59313e-06
3.19323e-06
4.22779e-06
4.59793e-06
4.28842e-06
3.93111e-06
3.80408e-06
4.39146e-06
5.21095e-06
6.27346e-06
5.99276e-06
4.78785e-06
2.6847e-06
1.11966e-06
3.85729e-07
1.17194e-07
0
0
0
0
0
0
0
0
0
0
0
0
0
0
0
0
0
0
0
0
0
0
0
0
0
0
0
0
0
0
0
0
0
0
0
0
0
0
0
0
0
0
0
0
0
0
0
0
0
0
0
0
0
0
0
0
0
5.79339e-10
1.69601e-09
5.18431e-09
1.32273e-08
3.13688e-08
7.26142e-08
1.74418e-07
4.70499e-07
1.09083e-06
1.91509e-06
2.81065e-06
3.92076e-06
5.09463e-06
5.86034e-06
6.29122e-06
6.38904e-06
6.23451e-06
5.96492e-06
5.71284e-06
5.5342e-06
5.46546e-06
5.51543e-06
5.66055e-06
5.80458e-06
5.61207e-06
5.31213e-06
4.62979e-06
4.31039e-06
4.21706e-06
4.46069e-06
4.42417e-06
4.33885e-06
4.24526e-06
4.43569e-06
5.12742e-06
5.53101e-06
6.09047e-06
4.4016e-06
2.85643e-06
1.35422e-06
5.62452e-07
1.91691e-07
5.76156e-08
0
0
0
0
0
0
0
0
0
0
0
0
0
0
0
0
0
0
0
0
0
0
0
0
0
0
0
0
0
0
0
0
0
0
0
0
0
0
0
0
0
0
0
0
0
0
0
0
0
0
0
0
0
0
0
0
0
0
5.09824e-10
1.9941e-09
6.16392e-09
1.70352e-08
3.62868e-08
8.42542e-08
2.79357e-07
8.64455e-07
1.71271e-06
2.6479e-06
3.79998e-06
5.13503e-06
6.07239e-06
6.62543e-06
6.743e-06
6.51607e-06
6.13247e-06
5.78117e-06
5.54126e-06
5.44894e-06
5.50588e-06
5.70486e-06
5.97793e-06
5.9086e-06
5.61948e-06
5.43436e-06
4.98074e-06
4.73867e-06
4.65591e-06
4.63559e-06
4.67723e-06
4.71113e-06
4.98677e-06
5.37471e-06
5.06485e-06
4.77982e-06
2.78385e-06
1.40593e-06
6.89137e-07
2.60458e-07
9.05706e-08
0
0
0
0
0
0
0
0
0
0
0
0
0
0
0
0
0
0
0
0
0
0
0
0
0
0
0
0
0
0
0
0
0
0
0
0
0
0
0
0
0
0
0
0
0
0
0
0
0
0
0
0
0
0
0
0
0
0
0
1.56823e-10
5.58499e-10
1.94879e-09
6.26194e-09
1.84669e-08
5.37209e-08
1.6571e-07
6.22051e-07
1.44123e-06
2.37931e-06
3.57675e-06
4.99847e-06
6.08962e-06
6.78343e-06
6.96762e-06
6.71211e-06
6.2493e-06
5.81781e-06
5.52966e-06
5.41321e-06
5.4633e-06
5.69323e-06
6.12491e-06
6.44907e-06
6.41104e-06
5.67712e-06
4.98298e-06
4.76906e-06
4.73572e-06
4.78968e-06
4.97932e-06
5.03117e-06
5.32646e-06
5.08335e-06
4.02836e-06
3.11424e-06
1.52599e-06
7.40065e-07
3.06235e-07
1.04328e-07
8.36739e-10
0
0
0
0
0
0
0
0
0
0
0
0
0
0
0
0
0
0
0
0
0
0
0
0
0
0
0
0
0
0
0
0
0
0
0
0
0
0
0
0
0
0
0
0
0
0
0
0
0
0
0
0
0
0
0
0
0
0
0
0
1.61599e-10
4.96167e-10
1.73062e-09
7.29966e-09
3.05906e-08
1.04566e-07
3.96308e-07
1.12265e-06
2.0251e-06
3.25148e-06
4.70848e-06
5.91575e-06
6.74108e-06
7.02638e-06
6.79732e-06
6.30466e-06
5.82312e-06
5.49894e-06
5.35505e-06
5.36079e-06
5.5256e-06
5.85561e-06
6.12082e-06
5.66876e-06
5.03556e-06
4.74688e-06
4.68464e-06
4.83571e-06
4.90552e-06
5.32016e-06
5.04756e-06
5.20449e-06
4.2418e-06
2.79653e-06
1.74509e-06
8.44391e-07
3.30217e-07
1.23438e-07
2.17216e-09
0
0
0
0
0
0
0
0
0
0
0
0
0
0
0
0
0
0
0
0
0
0
0
0
0
0
0
0
0
0
0
0
0
0
0
0
0
0
0
0
0
0
0
0
0
0
0
0
0
0
0
0
0
0
0
0
0
0
0
0
0
0
1.76351e-10
4.76029e-10
2.27445e-09
1.4396e-08
6.58333e-08
2.2232e-07
7.8558e-07
1.66814e-06
2.81929e-06
4.26673e-06
5.56079e-06
6.49607e-06
6.90541e-06
6.76402e-06
6.29646e-06
5.80188e-06
5.45508e-06
5.25882e-06
5.1864e-06
5.21889e-06
5.3114e-06
5.2497e-06
4.95846e-06
4.668e-06
4.53212e-06
4.6355e-06
5.15421e-06
4.91388e-06
4.80489e-06
4.595e-06
4.28284e-06
2.97986e-06
1.63193e-06
9.01218e-07
3.79289e-07
1.57497e-07
2.82141e-08
0
0
0
0
0
0
0
0
0
0
0
0
0
0
0
0
0
0
0
0
0
0
0
0
0
0
0
0
0
0
0
0
0
0
0
0
0
0
0
0
0
0
0
0
0
0
0
0
0
0
0
0
0
0
0
0
0
0
0
0
0
0
0
0
0
7.04009e-10
5.15279e-09
3.312e-08
1.32978e-07
4.6072e-07
1.24318e-06
2.24777e-06
3.64698e-06
5.0192e-06
6.04283e-06
6.59167e-06
6.59375e-06
6.21752e-06
5.7543e-06
5.38774e-06
5.14363e-06