/*--------------------------------*- C++ -*----------------------------------*\
  =========                 |
  \\      /  F ield         | OpenFOAM: The Open Source CFD Toolbox
   \\    /   O peration     | Website:  https://openfoam.org
    \\  /    A nd           | Version:  6
     \\/     M anipulation  |
\*---------------------------------------------------------------------------*/
FoamFile
{
    version     2.0;
    format      ascii;
    class       volScalarField;
    location    "0.005";
    object      Ha;
}
// * * * * * * * * * * * * * * * * * * * * * * * * * * * * * * * * * * * * * //

dimensions      [0 2 -2 0 0 0 0];

internalField   nonuniform List<scalar> 
8000
(
-64620.2
-64749.3
-64840.2
-65028.3
-65456
-66329
-67783.6
-69771.3
-71866.8
-73932.8
-76101.1
-78428.4
-80845.4
-82830.7
-83836
-84204.5
-84901.3
-86738.2
-90255.7
-98002.6
-116418
-167230
-317495
-349838
-557401
-913279
-1.13404e+06
-1.14594e+06
-1.07708e+06
-1.03429e+06
-1.05611e+06
-1.1379e+06
-1.25812e+06
-1.39719e+06
-1.53426e+06
-1.65097e+06
-1.74588e+06
-1.82091e+06
-1.87887e+06
-1.91904e+06
-1.93692e+06
-1.92741e+06
-1.87559e+06
-1.74753e+06
-1.42751e+06
-854017
-462270
-325800
-216056
-77506.9
-14740.9
-1864.15
-174.843
-11.6473
-0.582075
-0.0229554
-0.000737949
-2.06208e-05
-6.23339e-07
-2.92677e-08
-2.0593e-09
-1.62229e-10
-1.26971e-11
-9.6426e-13
-7.07054e-14
-5.04053e-15
-3.79754e-16
-2.97814e-17
-2.27332e-18
-1.68673e-19
-1.21832e-20
-8.57456e-22
-5.88345e-23
-3.9381e-24
-2.57218e-25
-1.61563e-26
-9.94208e-28
-6.00132e-29
-3.56044e-30
-2.07822e-31
-1.19576e-32
-6.81066e-34
-3.86463e-35
-2.20145e-36
-1.26931e-37
-7.46562e-39
-4.50637e-40
-2.79845e-41
-1.78641e-42
-1.16974e-43
-7.83399e-45
-5.31946e-46
-3.62918e-47
-2.47202e-48
-1.67414e-49
-1.12409e-50
-7.46848e-52
-4.9038e-53
-3.18479e-54
-2.55462e-55
-64911.3
-65512
-65475.4
-65621
-66040.4
-67120.6
-69151.6
-72300.8
-75525.2
-77994.4
-80418.5
-82977.8
-85777.3
-88543.4
-89344.5
-88647.8
-88555.5
-90177.8
-93209.6
-100197
-119320
-196281
-1.25507e+06
-540698
-617915
-1.00576e+06
-1.28129e+06
-1.22224e+06
-1.10002e+06
-1.03608e+06
-1.05301e+06
-1.13636e+06
-1.2603e+06
-1.40452e+06
-1.54801e+06
-1.66511e+06
-1.75776e+06
-1.83017e+06
-1.88631e+06
-1.92549e+06
-1.94226e+06
-1.93239e+06
-1.87999e+06
-1.7518e+06
-1.43673e+06
-882854
-462756
-303657
-218060
-88594
-19078.4
-2396.55
-197.414
-12.0383
-0.582386
-0.0229906
-0.000756836
-2.20033e-05
-6.86734e-07
-3.18856e-08
-2.19185e-09
-1.70776e-10
-1.32954e-11
-1.0058e-12
-7.34948e-14
-5.22599e-15
-3.93084e-16
-3.07863e-17
-2.34722e-18
-1.73951e-19
-1.25498e-20
-8.82266e-22
-6.04704e-23
-4.04331e-24
-2.63822e-25
-1.65563e-26
-1.0178e-27
-6.13753e-29
-3.63738e-30
-2.1207e-31
-1.21866e-32
-6.93113e-34
-3.92658e-35
-2.23263e-36
-1.28472e-37
-7.54082e-39
-4.54302e-40
-2.81653e-41
-1.79564e-42
-1.17473e-43
-7.86305e-45
-5.33724e-46
-3.64046e-47
-2.47935e-48
-1.67897e-49
-1.1273e-50
-7.48973e-52
-4.91783e-53
-3.19413e-54
-2.56411e-55
-65923.5
-70767.3
-68146.1
-68074.8
-67782.5
-68882.1
-71738.8
-77510.7
-86233.9
-87947.4
-90868
-93643.4
-96426.2
-101171
-103789
-98885.2
-95793.5
-97619.6
-99885.6
-104527
-117968
-157524
-360276
-319525
-457927
-950617
-1.81899e+06
-1.36478e+06
-1.11526e+06
-1.02935e+06
-1.04636e+06
-1.13669e+06
-1.26823e+06
-1.4219e+06
-1.57917e+06
-1.69691e+06
-1.78267e+06
-1.84897e+06
-1.90129e+06
-1.93841e+06
-1.95302e+06
-1.94248e+06
-1.88909e+06
-1.76043e+06
-1.45236e+06
-920617
-492478
-260878
-166031
-61465.2
-11208
-1329.09
-119.935
-8.22374
-0.443197
-0.0196646
-0.000740752
-2.48131e-05
-8.47561e-07
-3.8253e-08
-2.47568e-09
-1.87837e-10
-1.44768e-11
-1.0884e-12
-7.91074e-14
-5.60468e-15
-4.21152e-16
-3.2921e-17
-2.50448e-18
-1.85202e-19
-1.33328e-20
-9.35322e-22
-6.39731e-23
-4.2688e-24
-2.77986e-25
-1.74146e-26
-1.06845e-27
-6.4299e-29
-3.80256e-30
-2.21191e-31
-1.26783e-32
-7.19002e-34
-4.05985e-35
-2.29983e-36
-1.31802e-37
-7.70429e-39
-4.62332e-40
-2.85658e-41
-1.81636e-42
-1.18609e-43
-7.93e-45
-5.37869e-46
-3.66703e-47
-2.49676e-48
-1.69053e-49
-1.135e-50
-7.54098e-52
-4.95171e-53
-3.21655e-54
-2.58513e-55
-64952.4
-66004.3
-67186.9
-68668.8
-70141
-71474.4
-74192.3
-79186.6
-87743
-100988
-110929
-113752
-115912
-107193
-100734
-98998.9
-101044
-110553
-111507
-113258
-123391
-152440
-214086
-248197
-355306
-634599
-947167
-1.08439e+06
-1.07073e+06
-1.0605e+06
-1.05623e+06
-1.1493e+06
-1.28655e+06
-1.44895e+06
-1.62643e+06
-1.74753e+06
-1.81688e+06
-1.87352e+06
-1.92052e+06
-1.95555e+06
-1.96722e+06
-1.95574e+06
-1.90207e+06
-1.77218e+06
-1.47042e+06
-911738
-409798
-195080
-96320.2
-32238.3
-5557.6
-697.75
-74.0022
-6.02167
-0.389333
-0.0211202
-0.000973201
-3.81955e-05
-1.3579e-06
-5.37773e-08
-2.98419e-09
-2.12785e-10
-1.61154e-11
-1.20254e-12
-8.69088e-14
-6.13601e-15
-4.60869e-16
-3.59418e-17
-2.72707e-18
-2.01133e-19
-1.44419e-20
-1.0105e-21
-6.89386e-23
-4.58859e-24
-2.98081e-25
-1.86329e-26
-1.14036e-27
-6.84519e-29
-4.03732e-30
-2.34164e-31
-1.33784e-32
-7.55927e-34
-4.25039e-35
-2.39628e-36
-1.3661e-37
-7.94226e-39
-4.7416e-40
-2.91649e-41
-1.84793e-42
-1.20371e-43
-8.03515e-45
-5.44445e-46
-3.70952e-47
-2.52476e-48
-1.70917e-49
-1.14744e-50
-7.62374e-52
-5.00636e-53
-3.25255e-54
-2.61721e-55
-64968.2
-66930.3
-71634.9
-75212.3
-80614.3
-78435
-79391.4
-83400.4
-89951.3
-110528
-180453
-168367
-139144
-111239
-103113
-104579
-109094
-118906
-125624
-127306
-135202
-153002
-189708
-266646
-360093
-523209
-812297
-1.44011e+06
-1.21644e+06
-1.05096e+06
-1.0551e+06
-1.17111e+06
-1.31551e+06
-1.48252e+06
-1.67525e+06
-1.82304e+06
-1.8541e+06
-1.89947e+06
-1.94062e+06
-1.97506e+06
-1.98313e+06
-1.97012e+06
-1.91898e+06
-1.78595e+06
-1.49074e+06
-914196
-382143
-153043
-60208
-17684
-3274.82
-539.908
-70.4675
-6.76451
-0.525231
-0.0344736
-0.00186568
-8.0722e-05
-2.84206e-06
-9.3726e-08
-3.97556e-09
-2.47521e-10
-1.81126e-11
-1.33875e-12
-9.62133e-14
-6.77183e-15
-5.0846e-16
-3.95569e-17
-2.99326e-18
-2.20176e-19
-1.57671e-20
-1.10031e-21
-7.48693e-23
-4.97051e-24
-3.22079e-25
-2.00879e-26
-1.22625e-27
-7.34136e-29
-4.31795e-30
-2.49684e-31
-1.42173e-32
-8.00262e-34
-4.47984e-35
-2.51296e-36
-1.42467e-37
-8.23501e-39
-4.8891e-40
-2.99252e-41
-1.88879e-42
-1.22694e-43
-8.17571e-45
-5.53332e-46
-3.76739e-47
-2.56308e-48
-1.73476e-49
-1.16454e-50
-7.73757e-52
-5.0815e-53
-3.30187e-54
-2.65972e-55
-65107.3
-67761.5
-74891.1
-83820.8
-86186.4
-86668
-81191.3
-81597.9
-86083.6
-96246.3
-110835
-112501
-107253
-101677
-101420
-107284
-120911
-134751
-160184
-155834
-159714
-165841
-197103
-278551
-457108
-525219
-677087
-1.05437e+06
-950377
-922254
-1.01681e+06
-1.20668e+06
-1.36612e+06
-1.52176e+06
-1.69554e+06
-1.81539e+06
-1.8788e+06
-1.92252e+06
-1.95856e+06
-1.99594e+06
-1.99906e+06
-1.98366e+06
-1.94038e+06
-1.79991e+06
-1.51404e+06
-943851
-383844
-135640
-43829.3
-11849.5
-3032.78
-781.47
-105.043
-10.5355
-0.92604
-0.0707483
-0.00432147
-0.000200386
-7.04974e-06
-2.02942e-07
-6.25187e-09
-3.00638e-10
-2.03964e-11
-1.48519e-12
-1.06145e-13
-7.45036e-15
-5.59206e-16
-4.34039e-17
-3.27621e-18
-2.40398e-19
-1.71734e-20
-1.19554e-21
-8.11554e-23
-5.37515e-24
-3.47496e-25
-2.16287e-26
-1.31719e-27
-7.86678e-29
-4.61528e-30
-2.66143e-31
-1.51084e-32
-8.4746e-34
-4.72497e-35
-2.63828e-36
-1.48809e-37
-8.55557e-39
-5.05311e-40
-3.0787e-41
-1.93609e-42
-1.25438e-43
-8.34427e-45
-5.64119e-46
-3.83826e-47
-2.6103e-48
-1.76641e-49
-1.18574e-50
-7.87873e-52
-5.1747e-53
-3.36296e-54
-2.71125e-55
-65174.6
-66371.1
-69049.5
-72275.9
-75451.2
-78156.6
-80412.6
-83326
-87370.4
-91797.9
-96928.7
-101087
-100408
-100385
-104929
-115945
-131217
-163598
-225844
-201222
-194442
-189508
-218046
-318064
-946605
-666885
-605064
-680367
-738881
-860391
-1.03244e+06
-1.22546e+06
-1.40282e+06
-1.56996e+06
-1.72864e+06
-1.84017e+06
-1.90536e+06
-1.943e+06
-1.97257e+06
-2.01709e+06
-2.01324e+06
-1.99586e+06
-1.93651e+06
-1.80705e+06
-1.54145e+06
-998977
-400434
-135537
-41997.1
-12119.5
-3939.17
-1777.72
-175.923
-17.0221
-1.75075
-0.159537
-0.0109541
-0.000540653
-1.9293e-05
-5.18754e-07
-1.231e-08
-4.0233e-10
-2.30603e-11
-1.629e-12
-1.15695e-13
-8.10111e-15
-6.07767e-16
-4.70792e-17
-3.54619e-18
-2.59675e-19
-1.85128e-20
-1.28619e-21
-8.71353e-23
-5.75993e-24
-3.71659e-25
-2.30933e-26
-1.40364e-27
-8.36639e-29
-4.89823e-30
-2.81827e-31
-1.59591e-32
-8.92669e-34
-4.96084e-35
-2.75971e-36
-1.55017e-37
-8.87381e-39
-5.21897e-40
-3.16784e-41
-1.98621e-42
-1.2841e-43
-8.53011e-45
-5.76174e-46
-3.91823e-47
-2.66394e-48
-1.80251e-49
-1.20997e-50
-8.04039e-52
-5.28149e-53
-3.4329e-54
-2.76947e-55
-68824.4
-68267.4
-68692.3
-71585.2
-75263.7
-80532
-84019
-92465.8
-102030
-98010.3
-97239.7
-96515.5
-98179.3
-106734
-116488
-128012
-154105
-198030
-351491
-290090
-242385
-237488
-252162
-333473
-549854
-528546
-501831
-569918
-708392
-924079
-1.15671e+06
-1.32847e+06
-1.48172e+06
-1.63155e+06
-1.77542e+06
-1.8755e+06
-1.93243e+06
-1.96029e+06
-1.98157e+06
-2.0169e+06
-2.02404e+06
-2.0086e+06
-1.93828e+06
-1.81127e+06
-1.57353e+06
-1.06453e+06
-417178
-138154
-45988.1
-22755.3
-5567.68
-972.358
-140.71
-22.1795
-3.45517
-0.392152
-0.0298332
-0.00154334
-5.58566e-05
-1.45976e-06
-2.9746e-08
-6.47954e-10
-2.67664e-11
-1.76026e-12
-1.23846e-13
-8.65342e-15
-6.48902e-16
-5.01883e-17
-3.77439e-18
-2.75959e-19
-1.96438e-20
-1.36271e-21
-9.21843e-23
-6.0849e-24
-3.92076e-25
-2.43314e-26
-1.47678e-27
-8.78969e-29
-5.13842e-30
-2.95176e-31
-1.66859e-32
-9.31494e-34
-5.16491e-35
-2.86588e-36
-1.60524e-37
-9.16173e-39
-5.37277e-40
-3.25287e-41
-2.03542e-42
-1.31403e-43
-8.72106e-45
-5.88744e-46
-4.00249e-47
-2.72086e-48
-1.84098e-49
-1.23587e-50
-8.21333e-52
-5.39581e-53
-3.50776e-54
-2.83127e-55
-70888.7
-69867.2
-71709.6
-77070.3
-81185.3
-82847.8
-89719.4
-102685
-128265
-108774
-104257
-101039
-102848
-111070
-121812
-136270
-164605
-231668
-761652
-409367
-312461
-302589
-300858
-377044
-482986
-451755
-469055
-567196
-794452
-1.08692e+06
-1.42136e+06
-1.4999e+06
-1.5758e+06
-1.69745e+06
-1.82586e+06
-1.91538e+06
-1.95894e+06
-1.97413e+06
-1.98544e+06
-2.01542e+06
-2.03662e+06
-2.02353e+06
-1.94121e+06
-1.81133e+06
-1.55755e+06
-1.08291e+06
-411906
-129391
-38985.2
-13094.8
-3352.22
-664.435
-142.036
-37.1661
-8.07992
-1.05872
-0.085458
-0.00452687
-0.000164645
-4.23992e-06
-8.03126e-08
-1.31103e-09
-3.37489e-11
-1.87989e-12
-1.29763e-13
-9.04806e-15
-6.78305e-16
-5.24105e-17
-3.9376e-18
-2.87618e-19
-2.04547e-20
-1.41769e-21
-9.58193e-23
-6.31946e-24
-4.06857e-25
-2.52302e-26
-1.53008e-27
-9.09944e-29
-5.31512e-30
-3.0506e-31
-1.72285e-32
-9.6078e-34
-5.32097e-35
-2.94857e-36
-1.64918e-37
-9.39837e-39
-5.50367e-40
-3.32799e-41
-2.08046e-42
-1.34226e-43
-8.90511e-45
-6.01052e-46
-4.08586e-47
-2.77754e-48
-1.87945e-49
-1.26181e-50
-8.3868e-52
-5.51053e-53
-3.58286e-54
-2.89294e-55
-67822.4
-74626.9
-79181
-77898.4
-80527.3
-86977.3
-90439.3
-97636.3
-106898
-108070
-106501
-111210
-116748
-132065
-167260
-152945
-169478
-281608
-667036
-488826
-409733
-449585
-409814
-447201
-462351
-459332
-509130
-624307
-839418
-1.11977e+06
-1.3493e+06
-1.52292e+06
-1.64682e+06
-1.75674e+06
-1.86836e+06
-1.95817e+06
-1.98325e+06
-1.98459e+06
-1.98435e+06
-2.00673e+06
-2.0297e+06
-2.01367e+06
-1.94052e+06
-1.80694e+06
-1.52838e+06
-1.00849e+06
-384842
-113037
-33999.9
-12115.1
-3900.37
-676.724
-195.242
-72.9901
-20.4545
-2.96325
-0.246341
-0.0131038
-0.000473606
-1.2021e-05
-2.19366e-07
-3.07594e-09
-4.97775e-11
-2.013e-12
-1.3301e-13
-9.24929e-15
-6.93446e-16
-5.3563e-17
-4.02293e-18
-2.93767e-19
-2.08866e-20
-1.44726e-21
-9.77969e-23
-6.44861e-24
-4.151e-25
-2.57371e-26
-1.56056e-27
-9.27933e-29
-5.41949e-30
-3.11009e-31
-1.75621e-32
-9.79254e-34
-5.42246e-35
-3.00436e-36
-1.68015e-37
-9.57356e-39
-5.60571e-40
-3.38953e-41
-2.11895e-42
-1.36719e-43
-9.0714e-45
-6.12339e-46
-4.16303e-47
-2.83031e-48
-1.91537e-49
-1.28607e-50
-8.54903e-52
-5.61779e-53
-3.65305e-54
-2.95037e-55
-74868
-70713.7
-72645.8
-75986.8
-81822.6
-92115.5
-100190
-107775
-112438
-115947
-123071
-131159
-139930
-149803
-155487
-159840
-182108
-294662
-584886
-733719
-520330
-572862
-548848
-684653
-600216
-549957
-625322
-743652
-965303
-1.21243e+06
-1.40857e+06
-1.57776e+06
-1.71072e+06
-1.81215e+06
-1.89532e+06
-1.96536e+06
-1.99957e+06
-1.99313e+06
-1.97866e+06
-1.99272e+06
-2.0078e+06
-2.00808e+06
-1.93996e+06
-1.7991e+06
-1.5016e+06
-962115
-345252
-98517.4
-28020.8
-10344.7
-2912.09
-687.963
-296.755
-146.233
-52.1651
-8.31081
-0.691045
-0.0360263
-0.00127323
-3.16078e-05
-5.60925e-07
-7.30284e-09
-8.61325e-11
-2.22053e-12
-1.33712e-13
-9.25393e-15
-6.94224e-16
-5.36465e-17
-4.03096e-18
-2.94487e-19
-2.09474e-20
-1.45216e-21
-9.81755e-23
-6.47678e-24
-4.17123e-25
-2.58739e-26
-1.56963e-27
-9.3382e-29
-5.45686e-30
-3.13332e-31
-1.77041e-32
-9.87827e-34
-5.47392e-35
-3.03532e-36
-1.69894e-37
-9.68932e-39
-5.67844e-40
-3.4362e-41
-2.14953e-42
-1.38762e-43
-9.21044e-45
-6.21887e-46
-4.22871e-47
-2.87535e-48
-1.94605e-49
-1.30679e-50
-8.68742e-52
-5.70917e-53
-3.71277e-54
-2.99906e-55
-66373.4
-70178
-77564.1
-89224.1
-97041.6
-105993
-116781
-128467
-169524
-170016
-172711
-177902
-202370
-208349
-190481
-194144
-220888
-321995
-575273
-610063
-589932
-618739
-715004
-833517
-701959
-670891
-783417
-900384
-1.1522e+06
-1.42989e+06
-1.52806e+06
-1.66184e+06
-1.77568e+06
-1.86281e+06
-1.90889e+06
-1.95307e+06
-2.00462e+06
-1.98671e+06
-1.96807e+06
-1.97616e+06
-1.98921e+06
-2.00552e+06
-1.94233e+06
-1.7886e+06
-1.46977e+06
-922556
-307769
-85887.4
-22419.1
-8181.13
-3721.48
-817.985
-455.865
-279.495
-126.972
-23.5673
-1.86881
-0.0914557
-0.00307055
-7.3311e-05
-1.25928e-06
-1.56717e-08
-1.55809e-10
-2.57532e-12
-1.32524e-13
-9.09405e-15
-6.83113e-16
-5.28545e-17
-3.97638e-18
-2.90857e-19
-2.07143e-20
-1.43773e-21
-9.73163e-23
-6.42769e-24
-4.14447e-25
-2.57342e-26
-1.56294e-27
-9.30898e-29
-5.44604e-30
-3.13075e-31
-1.77107e-32
-9.89432e-34
-5.49002e-35
-3.04844e-36
-1.70869e-37
-9.7584e-39
-5.72612e-40
-3.4687e-41
-2.17162e-42
-1.40268e-43
-9.31369e-45
-6.2899e-46
-4.27751e-47
-2.90871e-48
-1.96868e-49
-1.322e-50
-8.78866e-52
-5.77576e-53
-3.75615e-54
-3.03428e-55
-67718.3
-83779.2
-102053
-122866
-143458
-159041
-168424
-228952
-674013
-479108
-347307
-320252
-310793
-289103
-265041
-267903
-333041
-398863
-554855
-662734
-769279
-762861
-871527
-979402
-827528
-822758
-924334
-1.06213e+06
-1.2769e+06
-1.49625e+06
-1.62997e+06
-1.74326e+06
-1.83313e+06
-1.87678e+06
-1.91041e+06
-1.94035e+06
-1.98595e+06
-1.98033e+06
-1.95388e+06
-1.95883e+06
-1.97178e+06
-1.99832e+06
-1.93575e+06
-1.77412e+06
-1.43032e+06
-811681
-258721
-72228.9
-17875.2
-5584.89
-2036.49
-845.999
-649.248
-485.901
-276.288
-72.3522
-4.9637
-0.211351
-0.00640297
-0.000142512
-2.3322e-06
-2.78524e-08
-2.53174e-10
-3.04591e-12
-1.30162e-13
-8.83133e-15
-6.64744e-16
-5.15403e-17
-3.88533e-18
-2.84757e-19
-2.03188e-20
-1.41292e-21
-9.58131e-23
-6.33975e-24
-4.09489e-25
-2.54654e-26
-1.54917e-27
-9.24183e-29
-5.41531e-30
-3.11789e-31
-1.76648e-32
-9.88339e-34
-5.49202e-35
-3.05388e-36
-1.71399e-37
-9.7999e-39
-5.7557e-40
-3.48882e-41
-2.18502e-42
-1.41156e-43
-9.37272e-45
-6.32928e-46
-4.30381e-47
-2.92625e-48
-1.98032e-49
-1.32968e-50
-8.83886e-52
-5.80832e-53
-3.77713e-54
-3.05111e-55
-83945.2
-202354
-233402
-254572
-286642
-480500
-345984
-356248
-559083
-563135
-576543
-538713
-510432
-470532
-420457
-386003
-428000
-564167
-652576
-807166
-1.139e+06
-949732
-967130
-1.00449e+06
-1.00008e+06
-1.02929e+06
-1.08851e+06
-1.22273e+06
-1.41998e+06
-1.63826e+06
-1.73384e+06
-1.81152e+06
-1.88349e+06
-1.88835e+06
-1.90404e+06
-1.92346e+06
-1.94445e+06
-1.9488e+06
-1.93562e+06
-1.94158e+06
-1.95423e+06
-1.98355e+06
-1.92084e+06
-1.75371e+06
-1.38104e+06
-685430
-224899
-56649.7
-14061.5
-4206.08
-1575.44
-893.516
-822.959
-735.872
-494.669
-246.388
-11.8888
-0.407793
-0.0106531
-0.000214806
-3.29636e-06
-3.76572e-08
-3.25227e-10
-3.3495e-12
-1.26781e-13
-8.54372e-15
-6.44954e-16
-5.01429e-17
-3.78991e-18
-2.78468e-19
-1.99187e-20
-1.38836e-21
-9.43619e-23
-6.25741e-24
-4.0502e-25
-2.52343e-26
-1.53806e-27
-9.19241e-29
-5.39567e-30
-3.11158e-31
-1.76551e-32
-9.89089e-34
-5.50228e-35
-3.06216e-36
-1.71952e-37
-9.83299e-39
-5.77391e-40
-3.4981e-41
-2.18937e-42
-1.41337e-43
-9.3784e-45
-6.32938e-46
-4.30176e-47
-2.92369e-48
-1.97794e-49
-1.32773e-50
-8.82407e-52
-5.7976e-53
-3.76965e-54
-3.04469e-55
-162613
-1.53301e+06
-1.16167e+06
-880848
-706246
-801086
-590983
-675816
-896494
-951228
-1.1242e+06
-989922
-907110
-786945
-823235
-595779
-533248
-561745
-701705
-965251
-1.13336e+06
-1.02777e+06
-1.03185e+06
-1.08326e+06
-1.14736e+06
-1.2453e+06
-1.2655e+06
-1.37827e+06
-1.54598e+06
-1.80454e+06
-1.82322e+06
-1.85981e+06
-1.89554e+06
-1.89189e+06
-1.89094e+06
-1.90338e+06
-1.90153e+06
-1.90223e+06
-1.91832e+06
-1.92505e+06
-1.93747e+06
-1.9709e+06
-1.91074e+06
-1.73026e+06
-1.3205e+06
-585888
-189345
-46231.8
-11623.4
-3777.01
-1413.67
-886.586
-880.195
-927.724
-734.186
-125.955
-8.08499
-0.329579
-0.00948871
-0.00019982
-3.10077e-06
-3.52718e-08
-3.02328e-10
-3.15291e-12
-1.22464e-13
-8.3091e-15
-6.2949e-16
-4.90889e-17
-3.72091e-18
-2.7415e-19
-1.96611e-20
-1.37382e-21
-9.35955e-23
-6.22056e-24
-4.0349e-25
-2.51864e-26
-1.53801e-27
-9.20779e-29
-5.41295e-30
-3.12561e-31
-1.77529e-32
-9.95247e-34
-5.53791e-35
-3.08108e-36
-1.72858e-37
-9.87001e-39
-5.78423e-40
-3.4966e-41
-2.18364e-42
-1.40692e-43
-9.32044e-45
-6.28216e-46
-4.26543e-47
-2.89682e-48
-1.95863e-49
-1.31419e-50
-8.73108e-52
-5.73494e-53
-3.72812e-54
-3.01055e-55
-286939
-953038
-1.1158e+06
-1.70034e+06
-1.27617e+06
-1.02433e+06
-827102
-929044
-1.10183e+06
-1.36711e+06
-1.83701e+06
-1.65535e+06
-1.35766e+06
-1.11234e+06
-927697
-762456
-669176
-658263
-804760
-979563
-1.01088e+06
-1.02863e+06
-1.11079e+06
-1.22865e+06
-1.34132e+06
-1.39875e+06
-1.44291e+06
-1.52923e+06
-1.62866e+06
-1.75059e+06
-1.80454e+06
-1.83133e+06
-1.85896e+06
-1.85654e+06
-1.85487e+06
-1.86217e+06
-1.85054e+06
-1.84988e+06
-1.87761e+06
-1.89953e+06
-1.91106e+06
-1.95004e+06
-1.88343e+06
-1.69145e+06
-1.23459e+06
-473311
-149912
-36651.7
-9367.85
-3719.24
-1257.89
-758
-745.383
-928.665
-1591.81
-222.846
-8.96281
-0.329475
-0.00883573
-0.000173114
-2.50139e-06
-2.66954e-08
-2.21359e-10
-2.62671e-12
-1.18212e-13
-8.16658e-15
-6.21335e-16
-4.86143e-17
-3.69646e-18
-2.73155e-19
-1.96441e-20
-1.37621e-21
-9.3988e-23
-6.26085e-24
-4.06957e-25
-2.54507e-26
-1.55682e-27
-9.33418e-29
-5.49371e-30
-3.17477e-31
-1.80377e-32
-1.01088e-33
-5.6185e-35
-3.1193e-36
-1.74444e-37
-9.91901e-39
-5.78466e-40
-3.47913e-41
-2.16239e-42
-1.38755e-43
-9.1621e-45
-6.15999e-46
-4.17468e-47
-2.8313e-48
-1.91238e-49
-1.28219e-50
-8.51354e-52
-5.58955e-53
-3.63232e-54
-2.93224e-55
-411779
-675635
-958259
-1.30198e+06
-1.53737e+06
-1.20536e+06
-1.00457e+06
-1.02196e+06
-1.20967e+06
-1.69732e+06
-1.86438e+06
-1.94036e+06
-1.6949e+06
-1.38973e+06
-1.13451e+06
-982690
-870892
-818267
-949111
-981258
-1.0129e+06
-1.07401e+06
-1.17024e+06
-1.35259e+06
-1.4946e+06
-1.4939e+06
-1.55834e+06
-1.63575e+06
-1.67781e+06
-1.71815e+06
-1.75782e+06
-1.79953e+06
-1.81899e+06
-1.82064e+06
-1.80576e+06
-1.78696e+06
-1.77811e+06
-1.79091e+06
-1.82774e+06
-1.86333e+06
-1.88379e+06
-1.90677e+06
-1.83991e+06
-1.63828e+06
-1.1407e+06
-384805
-117104
-29362.1
-8396.47
-3442.81
-835.879
-502.956
-436.188
-471.927
-418.679
-49.356
-2.99711
-0.119075
-0.00329416
-6.56694e-05
-9.59469e-07
-1.04341e-08
-9.85133e-11
-2.00559e-12
-1.17576e-13
-8.28981e-15
-6.32571e-16
-4.95981e-17
-3.77867e-18
-2.79744e-19
-2.01518e-20
-1.41393e-21
-9.66961e-23
-6.44902e-24
-4.19622e-25
-2.62684e-26
-1.6078e-27
-9.64265e-29
-5.67459e-30
-3.27709e-31
-1.85927e-32
-1.03945e-33
-5.75578e-35
-3.17855e-36
-1.76506e-37
-9.95007e-39
-5.74707e-40
-3.42285e-41
-2.10832e-42
-1.34261e-43
-8.81253e-45
-5.89842e-46
-3.98434e-47
-2.69587e-48
-1.81783e-49
-1.21731e-50
-8.07543e-52
-5.29826e-53
-3.44121e-54
-2.77668e-55
-487187
-585122
-795541
-1.03161e+06
-1.3684e+06
-1.21198e+06
-1.02522e+06
-1.01654e+06
-1.18675e+06
-1.44199e+06
-1.74231e+06
-1.85035e+06
-1.79776e+06
-1.52232e+06
-1.24828e+06
-1.09196e+06
-1.00429e+06
-961776
-1.00612e+06
-1.01624e+06
-1.04745e+06
-1.1027e+06
-1.1704e+06
-1.28031e+06
-1.39128e+06
-1.44379e+06
-1.46759e+06
-1.5036e+06
-1.54537e+06
-1.62029e+06
-1.71564e+06
-1.78212e+06
-1.79037e+06
-1.76545e+06
-1.73124e+06
-1.70386e+06
-1.70067e+06
-1.7335e+06
-1.77473e+06
-1.81301e+06
-1.85134e+06
-1.86308e+06
-1.77698e+06
-1.57006e+06
-1.02166e+06
-311223
-89172
-23568.7
-7702.26
-1863.72
-501.93
-280.036
-199.363
-162.898
-86.5267
-10.5131
-0.677703
-0.0280696
-0.00080523
-1.66154e-05
-2.5256e-07
-3.01162e-09
-4.35785e-11
-1.78512e-12
-1.21372e-13
-8.62337e-15
-6.5806e-16
-5.15872e-17
-3.92954e-18
-2.90861e-19
-2.09482e-20
-1.46941e-21
-1.00457e-22
-6.69717e-24
-4.35556e-25
-2.72556e-26
-1.66686e-27
-9.98606e-29
-5.86804e-30
-3.38194e-31
-1.91335e-32
-1.06548e-33
-5.86816e-35
-3.21725e-36
-1.77007e-37
-9.86762e-39
-5.62905e-40
-3.31043e-41
-2.01534e-42
-1.27075e-43
-8.27599e-45
-5.50705e-46
-3.7043e-47
-2.49889e-48
-1.68145e-49
-1.12429e-50
-7.45033e-52
-4.88421e-53
-3.17035e-54
-2.55681e-55
-510268
-553314
-671805
-810243
-996999
-987053
-911301
-925577
-1.04491e+06
-1.16068e+06
-1.26765e+06
-1.29315e+06
-1.33417e+06
-1.16381e+06
-1.08182e+06
-1.04994e+06
-1.03976e+06
-1.04677e+06
-1.07808e+06
-1.07556e+06
-1.10625e+06
-1.13994e+06
-1.16368e+06
-1.22216e+06
-1.30933e+06
-1.45154e+06
-1.40695e+06
-1.41193e+06
-1.45469e+06
-1.54617e+06
-1.64876e+06
-1.69187e+06
-1.70951e+06
-1.71092e+06
-1.6521e+06
-1.6227e+06
-1.62971e+06
-1.68301e+06
-1.73057e+06
-1.76407e+06
-1.80637e+06
-1.80982e+06
-1.71049e+06
-1.495e+06
-880737
-255902
-68582.5
-18531
-4963.84
-1200.92
-364.609
-162.581
-84.4059
-47.6718
-16.6473
-2.02136
-0.137252
-0.00610357
-0.000190316
-4.3175e-06
-7.41622e-08
-1.14765e-09
-3.06396e-11
-1.79014e-12
-1.26255e-13
-8.96289e-15
-6.8248e-16
-5.33952e-17
-4.05974e-18
-2.99977e-19
-2.15687e-20
-1.51049e-21
-1.03102e-22
-6.8627e-24
-4.4562e-25
-2.78471e-26
-1.70004e-27
-1.0165e-28
-5.95962e-30
-3.42527e-31
-1.93111e-32
-1.0705e-33
-5.86062e-35
-3.18808e-36
-1.73669e-37
-9.56624e-39
-5.38403e-40
-3.12256e-41
-1.87625e-42
-1.16984e-43
-7.55108e-45
-4.99109e-46
-3.341e-47
-2.24613e-48
-1.50777e-49
-1.00649e-50
-6.66185e-52
-4.36356e-53
-2.83059e-54
-2.28161e-55
-514985
-531624
-587307
-656256
-749835
-790503
-782177
-813357
-881390
-912662
-915898
-898583
-859259
-843383
-879611
-937625
-1.03788e+06
-1.09965e+06
-1.1104e+06
-1.14466e+06
-1.13403e+06
-1.14876e+06
-1.14634e+06
-1.17787e+06
-1.23477e+06
-1.30274e+06
-1.32814e+06
-1.33546e+06
-1.38634e+06
-1.47793e+06
-1.55514e+06
-1.57103e+06
-1.60478e+06
-1.60696e+06
-1.56083e+06
-1.54496e+06
-1.56716e+06
-1.62696e+06
-1.6836e+06
-1.71839e+06
-1.76125e+06
-1.75746e+06
-1.6406e+06
-1.39526e+06
-736922
-202667
-53942.5
-14736.3
-3800.35
-1145.26
-453.593
-167.634
-55.4199
-21.1944
-6.00813
-0.948605
-0.0877408
-0.00514417
-0.000202156
-5.52561e-06
-1.08736e-07
-1.72513e-09
-3.71888e-11
-1.86447e-12
-1.28308e-13
-9.06215e-15
-6.87775e-16
-5.3654e-17
-4.06844e-18
-2.9986e-19
-2.15088e-20
-1.50286e-21
-1.02358e-22
-6.79881e-24
-4.40566e-25
-2.74795e-26
-1.67403e-27
-9.98689e-29
-5.84064e-30
-3.34723e-31
-1.88054e-32
-1.03789e-33
-5.64987e-35
-3.05092e-36
-1.64652e-37
-8.967e-39
-4.98163e-40
-2.84995e-41
-1.69014e-42
-1.04179e-43
-6.66272e-45
-4.37319e-46
-2.91256e-47
-1.95112e-48
-1.30652e-49
-8.70669e-51
-5.75604e-52
-3.76707e-53
-2.44215e-54
-1.96753e-55
-515843
-519262
-539616
-572022
-622645
-666244
-683867
-708509
-734016
-720951
-690995
-661257
-640593
-657946
-717842
-803439
-917427
-1.01425e+06
-1.07221e+06
-1.15291e+06
-1.15502e+06
-1.13065e+06
-1.14907e+06
-1.17252e+06
-1.19813e+06
-1.23155e+06
-1.27015e+06
-1.27935e+06
-1.33143e+06
-1.40241e+06
-1.43996e+06
-1.46333e+06
-1.48613e+06
-1.48882e+06
-1.47148e+06
-1.47003e+06
-1.5016e+06
-1.56942e+06
-1.6285e+06
-1.67686e+06
-1.71453e+06
-1.70119e+06
-1.56647e+06
-1.28661e+06
-613110
-158186
-42914
-11642
-4023.27
-1565.65
-776.166
-351.124
-84.2754
-27.6699
-10.494
-2.70928
-0.310462
-0.0199705
-0.000814599
-2.24136e-05
-4.30206e-07
-5.98178e-09
-7.54499e-11
-2.04824e-12
-1.25011e-13
-8.73437e-15
-6.60534e-16
-5.1372e-17
-3.88432e-18
-2.85524e-19
-2.04289e-20
-1.42403e-21
-9.67699e-23
-6.41386e-24
-4.14762e-25
-2.58188e-26
-1.56961e-27
-9.34384e-29
-5.45195e-30
-3.11635e-31
-1.74545e-32
-9.59654e-34
-5.19861e-35
-2.78966e-36
-1.4935e-37
-8.05386e-39
-4.42338e-40
-2.49967e-41
-1.46467e-42
-8.93182e-44
-5.66241e-45
-3.69172e-46
-2.44669e-47
-1.6334e-48
-1.09118e-49
-7.26001e-51
-4.79434e-52
-3.13526e-53
-2.03144e-54
-1.63593e-55
-515894
-515078
-519375
-532096
-559176
-589778
-603882
-610581
-606098
-571749
-532612
-503818
-496100
-524627
-589166
-681440
-791566
-894609
-991168
-1.07416e+06
-1.08744e+06
-1.09651e+06
-1.1393e+06
-1.21794e+06
-1.21095e+06
-1.20668e+06
-1.22137e+06
-1.23618e+06
-1.27654e+06
-1.32818e+06
-1.34977e+06
-1.37201e+06
-1.38211e+06
-1.38429e+06
-1.39285e+06
-1.39873e+06
-1.44433e+06
-1.51384e+06
-1.57013e+06
-1.62624e+06
-1.66682e+06
-1.64602e+06
-1.48319e+06
-1.156e+06
-493489
-125176
-33879.3
-9702.29
-3952.67
-2212.72
-1169.27
-1037.48
-175.059
-49.9358
-27.0586
-11.2443
-1.36404
-0.0869392
-0.00345237
-9.18873e-05
-1.69617e-06
-2.20646e-08
-2.14567e-10
-2.71603e-12
-1.16751e-13
-7.92599e-15
-5.97208e-16
-4.63192e-17
-3.49322e-18
-2.56151e-19
-1.82857e-20
-1.27191e-21
-8.62606e-23
-5.70656e-24
-3.68361e-25
-2.28883e-26
-1.38901e-27
-8.25383e-29
-4.80675e-30
-2.74175e-31
-1.53184e-32
-8.3966e-34
-4.5311e-35
-2.4194e-36
-1.28705e-37
-6.88574e-39
-3.74663e-40
-2.09572e-41
-1.21551e-42
-7.34413e-44
-4.6202e-45
-2.99434e-46
-1.97586e-47
-1.31504e-48
-8.76668e-50
-5.82455e-51
-3.84275e-52
-2.51133e-53
-1.62645e-54
-1.30931e-55
-515578
-513277
-511095
-511578
-519815
-531617
-530832
-518205
-491911
-445965
-405027
-382706
-385739
-419339
-484962
-577423
-686587
-796482
-904186
-983787
-1.03482e+06
-1.07305e+06
-1.119e+06
-1.16169e+06
-1.17475e+06
-1.19075e+06
-1.20059e+06
-1.19809e+06
-1.21671e+06
-1.24008e+06
-1.25464e+06
-1.29655e+06
-1.29933e+06
-1.29451e+06
-1.30838e+06
-1.33159e+06
-1.38662e+06
-1.45446e+06
-1.51638e+06
-1.57829e+06
-1.62082e+06
-1.59009e+06
-1.38588e+06
-1.00914e+06
-388880
-98493.3
-27006.5
-8640.38
-3580.06
-1701.41
-1245.66
-1309.55
-270.666
-71.4525
-59.1207
-46.0285
-5.31751
-0.319353
-0.0120194
-0.000304834
-5.38018e-06
-6.67131e-08
-5.85934e-10
-4.56516e-12
-1.06885e-13
-6.73036e-15
-5.04946e-16
-3.90754e-17
-2.94069e-18
-2.15206e-19
-1.53343e-20
-1.06481e-21
-7.21011e-23
-4.76288e-24
-3.07022e-25
-1.90474e-26
-1.15439e-27
-6.85042e-29
-3.98383e-30
-2.26884e-31
-1.26535e-32
-6.92063e-34
-3.7242e-35
-1.98138e-36
-1.04912e-37
-5.57991e-39
-3.01486e-40
-1.6733e-41
-9.62842e-43
-5.77517e-44
-3.61086e-45
-2.32895e-46
-1.53135e-47
-1.01666e-48
-6.76613e-50
-4.49036e-51
-2.96032e-52
-1.93369e-53
-1.25194e-54
-1.00755e-55
-514768
-510614
-504669
-496845
-489356
-481245
-461264
-428276
-384830
-335856
-300029
-287359
-298596
-335480
-399311
-489980
-598267
-711793
-825202
-924548
-1.02669e+06
-1.06439e+06
-1.11076e+06
-1.13848e+06
-1.15602e+06
-1.17098e+06
-1.17005e+06
-1.1556e+06
-1.15381e+06
-1.15755e+06
-1.16751e+06
-1.20215e+06
-1.20931e+06
-1.21538e+06
-1.23462e+06
-1.2708e+06
-1.3323e+06
-1.40223e+06
-1.46854e+06
-1.53357e+06
-1.57606e+06
-1.53523e+06
-1.27832e+06
-856363
-302679
-77901.5
-21637.6
-6770.06
-2559.21
-1404.91
-1161.66
-574.614
-131.148
-70.8215
-88.6261
-165.408
-14.5126
-0.766538
-0.0266002
-0.000635554
-1.06927e-05
-1.2716e-07
-1.06171e-09
-6.82359e-12
-9.51083e-14
-5.33199e-15
-3.98074e-16
-3.07537e-17
-2.31079e-18
-1.68859e-19
-1.20158e-20
-8.33359e-22
-5.63678e-23
-3.71994e-24
-2.39577e-25
-1.48452e-26
-8.98957e-28
-5.33012e-29
-3.09699e-30
-1.76208e-31
-9.81628e-33
-5.36147e-34
-2.88007e-35
-1.52873e-36
-8.06998e-38
-4.27562e-39
-2.29935e-40
-1.26947e-41
-7.26514e-43
-4.33557e-44
-2.69903e-45
-1.73489e-46
-1.13785e-47
-7.54083e-49
-5.0127e-50
-3.32414e-51
-2.1904e-52
-1.43033e-53
-9.25869e-55
-7.45001e-56
-512975
-505090
-494920
-480222
-459637
-432108
-391336
-340742
-289088
-245004
-218998
-215032
-231804
-269914
-330646
-416341
-522017
-636476
-752303
-859450
-952294
-1.03454e+06
-1.10663e+06
-1.11946e+06
-1.12828e+06
-1.14206e+06
-1.13786e+06
-1.1061e+06
-1.08919e+06
-1.08132e+06
-1.08833e+06
-1.11071e+06
-1.12789e+06
-1.14593e+06
-1.17279e+06
-1.21734e+06
-1.28124e+06
-1.35604e+06
-1.42623e+06
-1.49172e+06
-1.52883e+06
-1.46426e+06
-1.15842e+06
-706201
-236743
-62083.2
-17578.1
-5288.46
-2094.11
-1342.19
-703.318
-241.63
-68.9365
-52.8998
-63.4003
-51.5395
-5.81575
-0.342738
-0.0127174
-0.00031923
-5.59376e-06
-6.8965e-08
-5.97036e-10
-4.10773e-12
-6.72403e-14
-3.91662e-15
-2.92417e-16
-2.2567e-17
-1.69392e-18
-1.23665e-19
-8.79244e-21
-6.09376e-22
-4.11939e-23
-2.71727e-24
-1.7493e-25
-1.08303e-26
-6.55609e-28
-3.88594e-29
-2.25709e-30
-1.28372e-31
-7.14812e-33
-3.90185e-34
-2.09432e-35
-1.11045e-36
-5.85324e-38
-3.09515e-39
-1.66052e-40
-9.14254e-42
-5.21712e-43
-3.10486e-44
-1.92829e-45
-1.23712e-46
-8.10246e-48
-5.36457e-49
-3.56385e-50
-2.36245e-51
-1.55636e-52
-1.01617e-53
-6.57753e-55
-5.29218e-56
-509085
-493539
-476956
-455262
-422974
-378035
-320678
-261397
-211573
-176368
-160230
-162800
-182561
-220059
-276785
-355350
-455388
-567200
-682867
-792723
-886541
-977042
-1.06963e+06
-1.07679e+06
-1.0855e+06
-1.07651e+06
-1.06456e+06
-1.04839e+06
-1.0238e+06
-1.00967e+06
-1.01587e+06
-1.03533e+06
-1.05886e+06
-1.08894e+06
-1.12189e+06
-1.17069e+06
-1.23775e+06
-1.31523e+06
-1.38778e+06
-1.45145e+06
-1.47711e+06
-1.38749e+06
-1.02762e+06
-580357
-182504
-49586.4
-14827.3
-4293.71
-1777.85
-1261.72
-687.425
-126.871
-36.5786
-30.3099
-29.6055
-13.6033
-1.60436
-0.0991754
-0.00384085
-0.000100286
-1.82439e-06
-2.33512e-08
-2.12408e-10
-1.74057e-12
-4.2514e-14
-2.67848e-15
-2.00338e-16
-1.54529e-17
-1.15934e-18
-8.45991e-20
-6.01285e-21
-4.16644e-22
-2.81627e-23
-1.85773e-24
-1.19604e-25
-7.40146e-27
-4.48107e-28
-2.65644e-29
-1.54322e-30
-8.77868e-32
-4.88906e-33
-2.66914e-34
-1.43284e-35