/*--------------------------------*- C++ -*----------------------------------*\
  =========                 |
  \\      /  F ield         | OpenFOAM: The Open Source CFD Toolbox
   \\    /   O peration     | Website:  https://openfoam.org
    \\  /    A nd           | Version:  6
     \\/     M anipulation  |
\*---------------------------------------------------------------------------*/
FoamFile
{
    version     2.0;
    format      ascii;
    class       volScalarField;
    location    "0.005";
    object      HCO;
}
// * * * * * * * * * * * * * * * * * * * * * * * * * * * * * * * * * * * * * //

dimensions      [0 0 0 0 0 0 0];

internalField   nonuniform List<scalar> 
8000
(
7.30193e-28
3.89953e-23
3.04409e-22
4.69293e-21
1.1823e-19
3.31046e-18
6.31266e-17
6.31756e-16
3.29619e-15
1.11656e-14
2.87078e-14
6.00417e-14
1.11061e-13
1.66156e-13
1.71377e-13
1.62555e-13
2.27043e-13
5.82035e-13
2.44972e-12
2.02523e-11
3.96662e-10
1.85439e-08
5.74481e-07
6.98002e-07
2.23434e-06
4.4935e-06
5.0122e-06
4.69441e-06
3.97695e-06
3.14173e-06
2.58999e-06
2.38667e-06
2.0454e-06
1.95449e-06
1.61591e-06
1.43181e-06
1.26998e-06
1.18894e-06
1.09834e-06
1.02733e-06
1.11051e-06
1.06615e-06
8.71463e-07
9.01696e-07
1.54427e-06
1.7501e-06
5.40972e-07
3.25761e-07
9.48077e-08
4.50092e-10
1.84601e-12
6.22471e-14
1.84714e-15
0
0
0
0
0
0
0
0
0
0
0
0
0
0
0
0
0
0
0
0
0
0
0
0
0
0
0
0
0
0
0
0
0
0
0
0
0
0
0
0
0
0
0
0
0
0
0
2.20377e-26
8.64791e-22
2.21613e-21
2.49433e-20
3.7483e-19
9.24309e-18
2.01026e-16
2.66992e-15
1.85436e-14
6.91998e-14
1.71942e-13
3.15146e-13
5.23634e-13
8.72208e-13
7.97641e-13
5.34237e-13
5.97075e-13
1.4184e-12
4.70802e-12
2.91951e-11
5.19646e-10
4.21205e-08
6.60763e-06
1.6685e-06
2.9273e-06
5.66523e-06
5.22189e-06
4.69618e-06
4.17551e-06
3.1388e-06
2.53478e-06
2.3533e-06
2.04078e-06
1.95693e-06
1.61232e-06
1.48352e-06
1.25315e-06
1.24082e-06
1.08159e-06
1.19891e-06
1.19737e-06
1.05136e-06
8.61814e-07
8.94722e-07
1.53237e-06
1.96722e-06
6.1462e-07
2.60574e-07
1.32017e-07
4.90802e-10
8.6337e-14
7.0765e-16
1.17996e-15
0
0
0
0
0
0
0
0
0
0
0
0
0
0
0
0
0
0
0
0
0
0
0
0
0
0
0
0
0
0
0
0
0
0
0
0
0
0
0
0
0
0
0
0
0
0
0
1.19352e-22
1.52697e-12
4.7006e-22
7.78158e-13
2.93261e-18
4.69039e-17
8.72009e-16
1.73697e-14
2.08941e-11
1.14038e-12
3.17545e-12
4.94039e-12
5.75273e-12
9.4336e-12
6.4103e-11
4.02711e-11
2.64902e-12
7.36327e-12
1.86764e-11
6.05011e-11
4.56476e-10
1.13138e-08
5.61892e-07
5.20898e-07
1.58827e-06
4.68532e-06
2.62277e-06
4.22186e-06
3.61105e-06
2.70938e-06
2.32664e-06
2.28635e-06
2.03705e-06
1.96403e-06
1.59914e-06
1.43589e-06
1.27279e-06
1.20404e-06
1.12224e-06
1.16054e-06
1.16104e-06
1.11773e-06
9.04411e-07
9.21586e-07
1.33678e-06
2.26989e-06
3.85006e-06
1.40906e-07
1.70095e-08
1.7343e-10
1.1361e-12
4.7689e-14
2.10446e-20
0
0
0
0
0
0
0
0
0
0
0
0
0
0
0
0
0
0
0
0
0
0
0
0
0
0
0
0
0
0
0
0
0
0
0
0
0
0
0
0
0
0
0
0
0
0
0
2.09035e-26
1.61626e-20
1.06758e-18
1.69027e-17
1.12884e-16
3.89276e-16
3.08152e-15
4.64831e-14
8.7706e-13
5.84225e-11
1.07324e-10
1.33993e-10
1.06433e-10
9.33759e-11
5.6254e-12
4.03139e-12
9.14345e-12
7.19073e-11
2.58832e-10
2.4473e-10
8.94619e-10
1.22481e-08
8.70048e-08
2.15925e-07
8.03966e-07
2.44796e-06
3.50621e-06
3.50299e-06
2.88835e-06
8.84395e-06
2.22119e-06
2.27367e-06
2.04997e-06
1.97536e-06
1.57092e-06
1.37114e-06
1.27909e-06
1.17182e-06
1.06934e-06
1.21063e-06
1.11295e-06
1.07401e-06
8.72956e-07
9.01108e-07
1.31139e-06
2.11966e-06
4.11967e-07
3.25221e-08
1.85361e-09
2.02734e-11
4.784e-13
2.99925e-14
5.3095e-24
0
0
0
0
0
0
0
0
0
0
0
0
0
0
0
0
0
0
0
0
0
0
0
0
0
0
0
0
0
0
0
0
0
0
0
0
0
0
0
0
0
0
0
0
0
0
0
3.48898e-24
2.84326e-20
4.15069e-12
4.10218e-16
1.10388e-11
4.1146e-15
1.05831e-14
1.10118e-11
1.53865e-12
1.06479e-10
1.244e-08
5.46517e-09
1.02367e-09
4.14014e-11
9.69687e-12
6.80117e-11
4.53734e-11
5.27522e-10
1.08488e-09
1.44665e-09
9.33909e-09
1.85227e-08
4.49709e-08
4.97265e-07
1.57967e-06
1.64488e-06
3.01803e-06
4.45328e-06
3.82479e-06
2.76017e-06
2.33631e-06
2.33973e-06
2.0789e-06
1.7844e-06
1.59844e-06
1.65818e-06
1.30747e-06
1.18617e-06
1.30957e-06
1.14282e-06
1.05654e-06
1.02475e-06
9.8937e-07
9.23348e-07
1.28295e-06
2.05099e-06
3.04209e-07
9.74758e-09
2.02806e-10
4.26199e-12
1.66422e-13
6.13654e-15
0
0
0
0
0
0
0
0
0
0
0
0
0
0
0
0
0
0
0
0
0
0
0
0
0
0
0
0
0
0
0
0
0
0
0
0
0
0
0
0
0
0
0
0
0
0
0
0
1.22715e-22
4.40612e-21
7.3555e-17
7.19009e-12
2.62848e-14
1.1324e-11
2.15238e-14
7.19059e-14
5.59567e-13
8.36952e-12
9.57533e-11
1.05704e-10
3.77241e-11
1.11271e-11
9.55094e-12
3.2034e-11
2.71986e-10
7.69676e-09
1.45345e-08
4.11384e-08
1.29573e-08
4.41522e-08
5.53679e-08
6.21001e-07
2.9602e-06
1.66004e-06
2.32885e-06
7.75684e-06
7.37254e-06
2.24675e-06
2.23064e-06
2.38471e-06
5.41904e-06
1.77727e-06
1.56299e-06
1.38116e-06
1.23817e-06
1.31529e-06
1.23272e-06
1.06694e-06
9.95453e-07
9.73183e-07
9.47075e-07
8.96093e-07
1.2546e-06
2.1544e-06
3.47519e-07
6.52961e-09
6.62328e-11
1.87839e-12
3.45447e-14
1.78233e-16
0
0
0
0
0
0
0
0
0
0
0
0
0
0
0
0
0
0
0
0
0
0
0
0
0
0
0
0
0
0
0
0
0
0
0
0
0
0
0
0
0
0
0
0
0
0
0
0
1.13037e-22
6.1898e-20
1.30201e-17
2.54873e-16
1.85786e-15
6.45807e-15
1.08918e-11
1.68018e-13
6.6664e-13
1.98218e-12
3.49114e-11
5.18719e-11
4.58622e-11
9.33704e-12
2.43611e-11
1.36505e-10
8.86603e-10
1.06558e-08
5.95477e-07
7.27442e-08
2.24362e-07
5.34698e-08
2.73724e-07
4.61842e-07
7.51744e-06
2.6436e-06
2.06745e-06
2.0898e-06
1.92163e-06
2.04863e-06
2.3438e-06
2.49734e-06
2.14283e-06
1.75336e-06
1.50496e-06
1.39302e-06
1.23996e-06
1.33952e-06
1.15654e-06
7.0284e-07
9.33836e-07
9.21012e-07
1.00534e-06
8.76838e-07
1.22622e-06
2.38179e-06
4.75765e-07
9.23176e-09
6.11375e-11
1.0673e-12
2.03013e-15
3.15074e-16
0
0
0
0
0
0
0
0
0
0
0
0
0
0
0
0
0
0
0
0
0
0
0
0
0
0
0
0
0
0
0
0
0
0
0
0
0
0
0
0
0
0
0
0
0
0
0
0
1.35496e-12
8.78363e-13
1.12822e-17
2.83985e-16
1.82411e-15
9.42077e-12
1.37651e-13
2.08862e-12
5.94823e-11
6.67271e-12
5.51936e-12
5.64879e-12
8.94283e-12
4.40803e-11
1.98244e-10
5.23206e-10
5.63987e-09
1.12585e-07
8.01436e-07
1.21243e-06
1.88963e-07
1.88137e-07
6.96468e-07
6.0542e-07
1.87687e-06
4.37038e-06
1.48922e-06
1.5861e-06
1.86146e-06
2.41279e-06
2.71835e-06
2.32839e-06
1.95576e-06
1.69363e-06
1.47677e-06
1.32467e-06
1.35055e-06
1.24422e-06
1.08298e-06
9.38895e-07
8.74084e-07
8.66278e-07
9.75324e-07
9.13118e-07
1.19695e-06
2.65867e-06
6.39777e-07
7.07187e-09
5.78009e-11
2.1703e-15
9.25678e-18
1.88081e-16
0
0
0
0
0
0
0
0
0
0
0
0
0
0
0
0
0
0
0
0
0
0
0
0
0
0
0
0
0
0
0
0
0
0
0
0
0
0
0
0
0
0
0
0
0
0
0
0
1.82983e-12
4.26046e-12
9.61025e-17
3.8945e-15
7.94032e-12
6.41054e-14
2.25103e-11
1.72293e-11
4.47775e-10
6.11599e-11
8.69897e-11
6.61844e-11
4.78926e-11
1.57468e-10
4.94187e-10
1.50934e-09
1.72425e-08
2.99156e-07
5.95711e-06
1.07133e-06
5.34669e-07
1.4136e-06
5.36715e-07
2.21742e-06
3.52123e-06
1.40769e-06
1.39083e-06
1.63731e-06
2.3555e-06
3.08188e-06
4.1176e-06
3.56828e-06
1.9044e-06
1.6681e-06
1.51047e-06
1.28709e-06
1.34376e-06
1.14983e-06
1.01329e-06
8.88789e-07
6.38922e-07
6.49197e-07
9.43291e-07
9.03778e-07
3.51263e-06
6.50837e-06
7.45082e-07
8.891e-09
3.65676e-11
4.38493e-14
1.5425e-15
9.40157e-17
0
0
0
0
0
0
0
0
0
0
0
0
0
0
0
0
0
0
0
0
0
0
0
0
0
0
0
0
0
0
0
0
0
0
0
0
0
0
0
0
0
0
0
0
0
0
0
0
4.52559e-23
4.84427e-12
4.86844e-12
1.89482e-11
3.79627e-14
1.80424e-11
2.08813e-12
1.73132e-11
1.12523e-10
1.41592e-09
2.17578e-10
4.25928e-10
3.6332e-09
6.40558e-09
2.11334e-08
1.29612e-08
1.48276e-08
2.37938e-07
3.26492e-06
1.78362e-06
1.23217e-06
1.63832e-06
1.35202e-06
1.62341e-06
1.66207e-06
1.55411e-06
1.67928e-06
1.92243e-06
2.4504e-06
7.63784e-06
2.6406e-06
2.12656e-06
3.05518e-06
1.53921e-06
1.41386e-06
1.15019e-06
1.22074e-06
1.05665e-06
9.48102e-07
8.47354e-07
6.87928e-07
7.87471e-07
9.17497e-07
9.02143e-07
1.25061e-06
2.79721e-06
1.54663e-06
4.87271e-09
2.20094e-11
9.9657e-15
1.71362e-15
1.0145e-16
0
0
0
0
0
0
0
0
0
0
0
0
0
0
0
0
0
0
0
0
0
0
0
0
0
0
0
0
0
0
0
0
0
0
0
0
0
0
0
0
0
0
0
0
0
0
0
0
3.56545e-12
2.13082e-16
5.6804e-15
5.90122e-14
5.16714e-13
4.34668e-11
5.54013e-11
1.61118e-09
1.19227e-09
2.23469e-09
4.44283e-09
3.92817e-08
1.04088e-08
3.46822e-08
1.29507e-08
1.51787e-08
3.24598e-08
8.73299e-07
5.77687e-06
5.72516e-06
2.19703e-06
4.18587e-06
2.42786e-06
4.52886e-06
4.05245e-06
2.15203e-06
2.31038e-06
2.45123e-06
2.83123e-06
3.05155e-06
2.56526e-06
2.04982e-06
1.76677e-06
1.53167e-06
1.38058e-06
1.15261e-06
1.11117e-06
1.01275e-06
8.88376e-07
8.09642e-07
7.62985e-07
7.58341e-07
8.92088e-07
8.55976e-07
1.28967e-06
2.85331e-06
4.1348e-07
2.65799e-09
1.36706e-11
6.14066e-17
1.13504e-15
1.07144e-16
0
0
0
0
0
0
0
0
0
0
0
0
0
0
0
0
0
0
0
0
0
0
0
0
0
0
0
0
0
0
0
0
0
0
0
0
0
0
0
0
0
0
0
0
0
0
0
0
4.69884e-18
3.69256e-14
1.00935e-12
5.39168e-11
8.1016e-11
1.99293e-09
4.09898e-09
6.27425e-09
1.21345e-07
1.14284e-07
1.1851e-07
1.20786e-07
1.57377e-07
4.54324e-07
8.90438e-08
8.63577e-08
1.37362e-07
1.31997e-06
5.55353e-06
5.10966e-06
2.75649e-06
2.91711e-06
3.37971e-06
3.99936e-06
3.10115e-06
2.66586e-06
2.89345e-06
5.57042e-06
3.22801e-06
4.28343e-06
2.27197e-06
1.99775e-06
1.67177e-06
1.78074e-06
1.26306e-06
1.27385e-06
1.0512e-06
8.99829e-07
8.34531e-07
7.7282e-07
7.40097e-07
7.28613e-07
9.57301e-07
8.66333e-07
1.34173e-06
6.0751e-06
5.98328e-07
3.45504e-10
8.83278e-12
6.51043e-15
3.69003e-18
1.47413e-16
3.52095e-19
0
0
0
0
0
0
0
0
0
0
0
0
0
0
0
0
0
0
0
0
0
0
0
0
0
0
0
0
0
0
0
0
0
0
0
0
0
0
0
0
0
0
0
0
0
0
0
2.50666e-15
6.72355e-11
9.40476e-10
1.11861e-08
7.40115e-08
1.78011e-07
5.09421e-08
5.30724e-07
2.97329e-06
2.88008e-06
1.5438e-06
1.36645e-06
7.65375e-07
1.16285e-06
4.47631e-07
3.92128e-07
1.56723e-06
1.03433e-06
2.38796e-06
4.97743e-06
3.78808e-06
3.57781e-06
3.99017e-06
5.57596e-06
3.41636e-06
3.05963e-06
3.08679e-06
6.08423e-06
2.89603e-06
2.46478e-06
2.13272e-06
1.82028e-06
1.64803e-06
1.34876e-06
1.15489e-06
1.17776e-06
1.20507e-06
1.20158e-06
7.865e-07
7.36673e-07
7.16456e-07
8.09007e-07
1.00973e-06
8.84031e-07
1.4042e-06
5.92242e-06
1.83164e-07
1.67296e-10
6.25973e-12
1.16766e-13
5.70976e-16
1.50253e-16
7.23077e-17
1.31659e-18
0
0
0
0
0
0
0
0
0
0
0
0
0
0
0
0
0
0
0
0
0
0
0
0
0
0
0
0
0
0
0
0
0
0
0
0
0
0
0
0
0
0
0
0
0
0
7.01847e-12
6.31616e-07
7.8023e-07
8.42887e-07
5.37893e-07
3.42199e-06
1.72048e-06
8.5602e-07
2.23584e-06
2.26854e-06
2.15909e-06
1.9194e-06
1.79519e-06
1.60919e-06
1.34656e-06
1.10692e-06
1.33269e-06
4.85397e-06
3.28852e-06
5.48325e-06
6.5353e-06
4.2485e-06
4.09877e-06
4.03681e-06
5.65613e-06
3.4794e-06
6.12271e-06
3.28762e-06
2.85908e-06
2.29336e-06
2.02502e-06
1.76305e-06
1.70514e-06
1.29406e-06
1.05281e-06
1.0059e-06
9.28422e-07
1.4363e-06
7.44364e-07
7.02639e-07
6.93941e-07
6.94151e-07
7.83985e-07
8.66291e-07
1.71032e-06
1.8343e-06
1.10868e-07
2.94795e-10
4.07389e-12
8.72173e-14
3.83467e-16
1.54843e-16
1.2257e-16
9.1541e-17
7.83794e-19
0
0
0
0
0
0
0
0
0
0
0
0
0
0
0
0
0
0
0
0
0
0
0
0
0
0
0
0
0
0
0
0
0
0
0
0
0
0
0
0
0
0
0
0
0
4.4322e-08
3.05433e-06
8.16972e-06
5.84498e-06
2.71631e-06
5.41738e-06
2.4088e-06
4.85487e-06
5.41544e-06
4.29204e-06
5.25645e-06
3.86076e-06
4.83607e-06
3.25905e-06
5.15794e-06
2.40793e-06
2.0811e-06
2.36235e-06
3.47498e-06
5.97649e-06
6.81624e-06
6.10124e-06
4.00547e-06
3.93756e-06
3.82395e-06
6.90126e-06
3.43445e-06
2.92665e-06
2.50694e-06
2.28668e-06
2.09645e-06
1.84897e-06
1.6571e-06
1.74204e-06
1.82291e-06
1.83417e-06
7.17131e-07
6.34284e-07
1.55956e-06
6.21839e-07
1.22833e-06
6.80959e-07
1.20588e-06
2.26326e-06
1.81483e-06
3.9778e-06
6.00538e-08
1.43293e-10
2.78085e-12
2.24604e-15
3.26407e-16
1.52615e-16
1.30913e-16
1.08571e-16
6.65283e-17
0
0
0
0
0
0
0
0
0
0
0
0
0
0
0
0
0
0
0
0
0
0
0
0
0
0
0
0
0
0
0
0
0
0
0
0
0
0
0
0
0
0
0
0
0
2.79738e-06
4.64823e-06
5.22138e-06
2.77687e-06
5.17021e-06
6.48056e-06
3.69851e-06
4.36292e-06
5.98782e-06
5.12754e-06
4.64572e-06
3.26717e-06
4.46313e-06
4.43185e-06
3.80565e-06
3.02588e-06
2.66869e-06
2.78157e-06
3.78556e-06
6.18837e-06
4.10981e-06
3.84514e-06
3.84845e-06
3.89324e-06
5.99218e-06
3.1939e-06
2.98104e-06
2.5512e-06
2.24755e-06
1.9287e-06
2.14641e-06
1.46881e-06
1.19806e-06
9.6329e-07
8.15745e-07
2.19899e-06
2.26198e-06
5.71493e-07
1.85472e-06
1.58211e-06
5.20181e-07
1.10501e-06
1.39544e-06
9.07061e-07
2.2159e-06
8.5714e-07
2.62848e-08
6.3784e-11
1.60798e-12
2.00211e-15
2.78331e-16
1.33718e-16
1.18671e-16
1.13163e-16
1.04252e-16
0
0
0
0
0
0
0
0
0
0
0
0
0
0
0
0
0
0
0
0
0
0
0
0
0
0
0
0
0
0
0
0
0
0
0
0
0
0
0
0
0
0
0
0
0
1.50516e-07
4.01667e-06
4.26406e-06
4.20121e-06
4.05005e-06
5.02442e-06
4.21858e-06
4.36824e-06
5.17577e-06
2.44548e-06
3.9273e-06
1.11768e-06
2.4539e-06
3.84517e-06
3.95348e-06
3.39681e-06
3.11856e-06
3.16716e-06
3.95201e-06
3.90629e-06
3.57647e-06
3.4275e-06
3.49133e-06
5.55903e-06
3.55076e-06
2.71711e-06
3.45106e-06
3.08871e-06
2.82088e-06
2.58103e-06
1.34553e-06
1.19252e-06
9.69974e-07
8.55106e-07
2.59923e-06
2.76294e-06
2.77179e-06
5.5892e-07
5.59116e-07
1.83556e-06
1.58237e-06
5.47352e-07
1.72265e-06
1.00773e-06
6.08534e-06
1.53218e-06
1.16655e-08
2.95361e-11
8.07818e-13
1.66826e-15
1.81373e-16
5.34737e-18
2.3382e-19
1.13548e-18
7.41535e-21
0
0
0
0
0
0
0
0
0
0
0
0
0
0
0
0
0
0
0
0
0
0
0
0
0
0
0
0
0
0
0
0
0
0
0
0
0
0
0
0
0
0
0
0
0
9.4416e-07
4.76614e-06
2.69134e-06
2.74028e-06
2.84084e-06
7.27814e-06
3.29927e-06
3.32127e-06
4.0723e-06
3.00101e-06
2.57128e-06
1.52466e-06
1.72421e-06
3.88396e-06
2.56052e-06
2.83804e-06
6.48474e-06
3.0649e-06
6.65741e-06
3.3715e-06
3.08039e-06
7.14404e-06
2.99084e-06
2.71615e-06
2.65399e-06
2.42483e-06
2.19514e-06
1.82383e-06
1.58121e-06
1.35783e-06
1.1288e-06
2.56908e-06
2.65911e-06
6.98595e-07
3.196e-06
5.56025e-07
5.21175e-07
4.93107e-07
4.98268e-07
5.4442e-07
1.81358e-06
1.64573e-06
7.23925e-07
1.01996e-06
6.02443e-06
7.76187e-07
3.93361e-09
1.39124e-11
3.10431e-13
5.48231e-16
3.86565e-18
0
0
0
0
0
0
0
0
0
0
0
0
0
0
0
0
0
0
0
0
0
0
0
0
0
0
0
0
0
0
0
0
0
0
0
0
0
0
0
0
0
0
0
0
0
0
0
0
0
1.17784e-06
3.58311e-06
3.41824e-06
1.24965e-06
1.09658e-06
1.5373e-06
1.32416e-06
1.38829e-06
1.83461e-06
1.62253e-06
1.14443e-06
8.68613e-07
4.89513e-06
5.18388e-06
1.11332e-06
1.43393e-06
1.83331e-06
2.40334e-06
2.73174e-06
2.76657e-06
2.54286e-06
2.3817e-06
2.41931e-06
2.46832e-06
2.15228e-06
3.60441e-06
1.69932e-06
4.13627e-06
1.37835e-06
1.09266e-06
3.17591e-06
3.11942e-06
6.80912e-07
3.3495e-06
3.4979e-06
5.65042e-07
5.65425e-07
6.22301e-07
2.77161e-06
4.93206e-07
2.10229e-06
5.69286e-07
7.1175e-07
4.61109e-06
5.87342e-06
1.53731e-07
1.11567e-09
6.7367e-12
1.96555e-13
3.15348e-16
2.23778e-33
0
0
0
0
0
0
0
0
0
0
0
0
0
0
0
0
0
0
0
0
0
0
0
0
0
0
0
0
0
0
0
0
0
0
0
0
0
0
0
0
0
0
0
0
0
0
0
0
0
1.23217e-06
2.16078e-06
4.32282e-06
4.26998e-06
1.82621e-06
8.58354e-07
7.56309e-07
6.502e-07
5.84717e-07
5.59971e-07
5.12012e-07
4.4615e-07
3.83552e-07
3.31395e-07
5.3354e-07
5.09629e-07
8.65614e-07
1.47636e-06
1.96605e-06
7.90436e-06
1.96698e-06
8.11094e-06
1.89345e-06
1.91828e-06
1.87646e-06
1.48299e-06
1.33403e-06
1.22457e-06
1.09276e-06
3.76875e-06
3.60323e-06
7.15477e-07
3.69617e-06
3.72072e-06
5.41996e-07
5.32547e-07
3.48232e-06
6.19405e-07
2.62585e-06
4.78512e-07
5.01271e-07
2.3833e-06
7.73011e-07
1.2781e-06
5.29848e-06
7.13179e-08
2.37727e-10
3.39817e-12
4.59385e-14
2.6007e-16
3.03747e-19
0
0
0
0
0
0
0
0
0
0
0
0
0
0
0
0
0
0
0
0
0
0
0
0
0
0
0
0
0
0
0
0
0
0
0
0
0
0
0
0
0
0
0
0
0
0
0
0
0
1.24287e-06
1.36153e-06
2.29567e-06
3.82982e-06
4.64026e-06
3.60265e-06
2.96262e-06
2.34237e-06
1.7055e-06
1.48745e-06
1.24314e-06
9.42008e-07
6.84063e-07
4.33644e-07
2.7166e-07
2.32963e-07
4.42153e-07
6.29861e-06
1.19708e-06
1.34075e-06
7.95963e-06
1.40417e-06
1.41458e-06
1.44486e-06
1.43152e-06
1.29816e-06
7.73478e-06
9.93973e-07
8.82775e-07
4.65606e-06
7.6241e-07
6.157e-07
5.57849e-07
5.21972e-07
5.00794e-07
5.14994e-07
5.87417e-07
6.75521e-07
2.88849e-06
2.58264e-06
4.91465e-07
5.67272e-07
8.06697e-07
6.22164e-06
4.22648e-06
3.21654e-08
9.93452e-11
1.70323e-12
2.08548e-15
2.92005e-16
1.00662e-16
9.83328e-34
0
0
0
0
0
0
0
0
0
0
0
0
0
0
0
0
0
0
0
0
0
0
0
0
0
0
0
0
0
0
0
0
0
0
0
0
0
0
0
0
0
0
0
0
0
0
0
0
1.24446e-06
1.23251e-06
1.36598e-06
1.95275e-06
3.32038e-06
4.36056e-06
4.46082e-06
4.19156e-06
3.572e-06
2.89014e-06
2.1717e-06
1.53993e-06
1.02646e-06
6.21998e-07
3.37761e-07
1.97427e-07
2.31197e-07
3.90772e-07
6.49932e-07
6.94864e-06
7.24283e-06
1.04759e-06
1.09657e-06
8.76132e-06
8.78407e-06
1.01047e-06
9.62936e-07
8.98413e-07
7.49964e-07
6.28994e-06
5.92803e-06
5.95611e-07
5.46887e-07
5.19591e-07
4.74991e-06
5.46554e-07
6.5807e-07
3.71437e-06
3.50236e-06
6.39523e-07
6.18895e-07
6.30548e-07
8.54224e-07
1.69692e-06
7.65823e-07
1.51485e-08
4.21961e-11
8.12887e-13
1.77643e-15
4.14764e-16
1.23203e-16
8.22891e-17
0
0
0
0
0
0
0
0
0
0
0
0
0
0
0
0
0
0
0
0
0
0
0
0
0
0
0
0
0
0
0
0
0
0
0
0
0
0
0
0
0
0
0
0
0
0
0
0
1.24218e-06
1.21575e-06
1.19315e-06
1.2435e-06
1.68584e-06
2.48356e-06
2.8633e-06
2.89679e-06
2.61169e-06
2.0613e-06
1.59716e-06
1.21099e-06
8.83467e-07
5.96283e-07
3.58844e-07
1.96673e-07
1.45177e-07
3.17932e-07
3.83136e-07
5.35476e-07
6.685e-07
7.88412e-07
8.92036e-07
9.34845e-07
9.12e-07
8.28536e-07
8.5594e-06
7.45294e-07
6.94832e-07
6.47545e-07
6.02585e-07
6.44204e-06
6.31842e-06
4.68779e-07
4.83025e-07
5.49631e-07
6.71521e-07
7.94799e-07
7.57376e-07
6.4501e-07
5.91491e-07
6.36593e-07
1.02538e-06
1.75983e-06
4.39122e-07
6.91302e-09
1.92825e-11
2.65634e-13
1.40381e-15
2.46135e-16
1.20874e-16
8.64321e-17
0
0
0
0
0
0
0
0
0
0
0
0
0
0
0
0
0
0
0
0
0
0
0
0
0
0
0
0
0
0
0
0
0
0
0
0
0
0
0
0
0
0
0
0
0
0
0
0
1.23491e-06
1.19522e-06
1.13622e-06
1.05635e-06
1.04338e-06
1.11192e-06
1.1475e-06
1.11484e-06
1.06737e-06
9.27647e-07
7.98184e-07
6.90416e-07
5.78123e-07
4.5106e-07
3.12585e-07
1.90159e-07
1.22861e-07
1.32999e-07
3.30568e-07
3.80135e-07
6.34786e-06
6.29301e-07
7.3125e-07
7.76685e-07
7.62719e-07
7.13312e-07
6.69304e-07
6.28138e-07
5.89906e-07
5.55308e-07
5.18474e-07
6.53664e-06
4.55186e-07
4.42891e-07
4.72075e-07
5.79657e-07
3.11544e-06
6.99467e-07
7.95642e-07
6.49174e-07
5.84624e-07
3.79692e-06
1.10562e-06
1.61313e-06
2.33343e-07
3.00476e-09
9.8805e-12
8.73906e-14
7.30179e-16
1.82377e-16
1.16933e-16
1.67324e-17
0
0
0
0
0
0
0
0
0
0
0
0
0
0
0
0
0
0
0
0
0
0
0
0
0
0
0
0
0
0
0
0
0
0
0
0
0
0
0
0
0
0
0
0
0
0
0
0
1.21837e-06
1.15483e-06
1.06993e-06
9.31243e-07
7.26968e-07
5.22356e-07
3.70699e-07
3.45674e-07
3.65351e-07
3.67423e-07
3.5568e-07
3.44433e-07
3.28108e-07
2.99847e-07
2.46855e-07
1.73542e-07
1.13189e-07
1.02125e-07
2.18949e-07
3.01854e-07
3.98553e-07
5.21297e-07
6.1287e-07
6.48546e-07
6.46389e-07
7.84166e-06
7.68323e-06
5.29275e-07
5.01019e-07
4.74144e-07
4.48311e-07
4.26288e-07
4.0733e-07
4.12814e-07
4.77667e-07
6.15567e-07
6.62292e-07
6.79002e-07
7.10009e-07
6.49722e-07
5.74406e-07
6.54569e-07
1.35856e-06
4.63135e-06
1.18478e-07
1.13256e-09
5.3989e-12
3.58352e-15
4.46249e-16
1.49743e-16
6.34398e-17
0
0
0
0
0
0
0
0
0
0
0
0
0
0
0
0
0
0
0
0
0
0
0
0
0
0
0
0
0
0
0
0
0
0
0
0
0
0
0
0
0
0
0
0
0
0
0
0
0
1.18501e-06
1.06218e-06
9.23138e-07
7.32891e-07
4.71068e-07
2.1904e-07
1.12115e-07
1.13745e-07
1.36151e-07
1.48522e-07
1.55924e-07
1.62055e-07
1.70712e-07
1.8298e-07
1.83664e-07
1.55698e-07
1.09726e-07
8.74324e-08
1.13852e-07
2.69445e-07
3.08096e-07
4.12384e-07
6.39086e-06
5.34799e-07
5.38285e-07
5.12625e-07
4.8197e-07
4.47103e-07
4.21251e-07
3.99105e-07
3.83151e-07
3.72135e-07
3.68122e-07
4.16719e-06
3.80701e-06
6.13241e-07
6.12381e-07
6.45304e-07
6.99695e-07
6.38445e-07
5.62449e-07
7.44453e-07
1.42272e-06
9.91631e-07
5.50018e-08
2.36311e-10
3.05434e-12
2.30239e-15
3.21188e-16
1.25009e-16
4.71267e-17
0
0
0
0
0
0
0
0
0
0
0
0
0
0
0
0
0
0
0
0
0
0
0
0
0
0
0
0
0
0
0
0
0
0
0
0
0
0
0
0
0
0
0
0
0
0
0
0
0
1.11449e-06
8.65496e-07
6.37222e-07
4.45997e-07
2.22696e-07
7.05312e-08
4.06457e-08
4.83211e-08
5.91181e-08
6.71333e-08
7.23752e-08
7.57687e-08
8.41495e-08
1.05851e-07
1.31837e-07
1.37691e-07
1.11609e-07
8.30356e-08
8.83502e-08
1.87813e-07
2.59099e-07
3.14493e-07
3.83893e-07
4.27305e-07
6.14718e-06
4.18613e-07
3.95592e-07
6.13974e-06
3.49422e-07
3.29481e-07
3.21781e-07
3.21879e-07
3.3544e-07
3.8684e-07
5.15404e-07
5.69951e-07
5.38153e-07
6.0929e-07
6.84537e-07
6.57904e-07
6.21173e-07
7.65599e-07
1.35793e-06
2.34157e-06
2.58892e-08
7.32676e-11
1.60576e-12
1.47951e-15
2.44397e-16
9.19139e-17
4.56711e-35
0
0
0
0
0
0
0
0
0
0
0
0
0
0
0
0
0
0
0
0
0
0
0
0
0
0
0
0
0
0
0
0
0
0
0
0
0
0
0
0
0
0
0
0
0
0
0
0
0
9.50119e-07
5.11598e-07
2.92007e-07
1.6191e-07
6.38317e-08
2.21295e-08
2.18907e-08
2.60782e-08
3.03617e-08
3.49565e-08
3.67798e-08
3.64732e-08
4.24273e-08
6.17399e-08
9.18143e-08
1.17564e-07
1.14535e-07
8.78963e-08
7.71705e-08
1.09264e-07
3.2152e-06
2.52023e-07
2.93291e-07
3.3553e-07
5.57844e-06
3.35188e-07
3.14599e-07
3.02614e-07
2.81887e-07
2.67016e-07
2.67956e-07
2.77944e-07
3.08342e-07
3.79667e-07
4.79347e-07
4.80681e-07
4.65855e-07
5.80433e-07
6.65224e-07
6.19595e-07
5.96371e-06
8.90088e-07
1.18181e-06
4.38725e-07
1.10617e-08
3.17096e-11
7.69447e-13
9.39657e-16
1.8377e-16
7.56693e-17
0
0
0
0
0
0
0
0
0
0
0
0
0
0
0
0
0
0
0
0
0
0
0
0
0
0
0
0
0
0
0
0
0
0
0
0
0
0
0
0
0
0
0
0
0
0
0
0
0
0
6.13851e-07
1.44767e-07
5.52815e-08
2.83737e-08
1.63216e-08
1.55328e-08
1.59313e-08
1.65203e-08
1.80401e-08
2.01952e-08
2.06411e-08
1.87751e-08
2.38011e-08
3.69093e-08
6.20549e-08
9.50812e-08
1.1246e-07
9.7545e-08
7.6676e-08
8.43236e-08
1.58843e-07
2.46649e-07
2.34262e-07
2.57304e-07
2.71455e-07
2.62418e-07
5.71334e-06
2.35534e-07
2.2232e-07
2.13262e-07
2.24101e-07
2.43174e-07
2.975e-07
3.54726e-07
3.87304e-07
3.73073e-07
4.12106e-07
5.65261e-07
6.34718e-07
5.74288e-07
5.92367e-07
9.6512e-07
9.41133e-07
2.30657e-07
4.10242e-09
1.38579e-11
2.99202e-13
5.87863e-16
1.43996e-16
2.90342e-17
0
0
0
0
0
0
0
0
0
0
0
0
0
0
0
0
0
0
0
0
0
0
0
0
0
0
0
0
0
0
0
0
0
0
0
0
0
0
0
0
0
0
0
0
0
0
0
0
0
0
6.41866e-08
2.3204e-08
2.07104e-08
1.9776e-08
1.71451e-08
1.37294e-08
1.14204e-08
1.0887e-08
1.13609e-08
1.31923e-08
1.30288e-08
1.09547e-08
1.46787e-08
2.3185e-08
4.16752e-08
7.29488e-08
1.02532e-07
1.04704e-07
8.41329e-08
7.36993e-08
9.04787e-08
1.78378e-07
2.11119e-07
1.98177e-07
2.0858e-07
3.97943e-06
4.06876e-06
1.79545e-07
1.70552e-07
1.68334e-07
3.20484e-06
2.22593e-07
2.99616e-07
3.04128e-07
2.77703e-07
2.98981e-07
3.83081e-07
5.65507e-07
5.93558e-07
5.58248e-07
6.54104e-07
1.00042e-06
6.68363e-07
4.05276e-07
1.18896e-09
6.49822e-12
4.44375e-14
4.21274e-16
1.03299e-16
9.68138e-19
1.78266e-21
0
0
0
0
0
0
0
0
0
0
0
0
0
0
0
0
0
0
0
0
0
0
0
0
0
0
0
0
0
0
0
0
0
0
0
0
0
0
0
0
0
0
0
0
0
0
0
0
0
1.77547e-08
1.5322e-08
1.38268e-08
1.24288e-08
1.01441e-08
7.6552e-09
6.16517e-09
5.94133e-09
6.45214e-09
8.01794e-09
7.93784e-09
6.48592e-09
9.04336e-09
1.41125e-08
2.5378e-08
4.78862e-08
7.9869e-08
1.03472e-07
9.99622e-08
8.05031e-08
6.72323e-08
7.24789e-08
1.21319e-07
1.54614e-07
1.37854e-07
1.30025e-07
1.20582e-07
1.12364e-07
1.06186e-07
1.07704e-07
1.37792e-07
2.2042e-07
1.5826e-07
1.22506e-07
1.43923e-07
2.00246e-07
3.43514e-07
5.60463e-07
5.07596e-07
5.21796e-07
7.08651e-07
8.49598e-07
1.4703e-06
2.13508e-08
7.23523e-11
1.63128e-12
1.34945e-15
2.03043e-16
1.36699e-21
0
0
0
0
0
0
0
0
0
0
0
0
0
0
0
0
0
0
0
0
0
0
0
0
0
0
0
0
0
0
0
0
0
0
0
0
0
0
0
0
0
0
0
0
0
0
0
0
0
0
0
1.4097e-09
1.58253e-09
1.65661e-09
1.7223e-09
1.88949e-09
2.02411e-09
2.21889e-09
2.64837e-09
3.6818e-09
4.93742e-09
5.31845e-09
4.64147e-09
5.41552e-09
8.54451e-09
1.46471e-08
2.67958e-08
4.7162e-08
7.02445e-08
8.29907e-08
7.71554e-08
6.09649e-08
4.78275e-08
4.52834e-08
5.88278e-08
7.77433e-08
8.52739e-08
8.33535e-08
7.46117e-08
5.79342e-08
3.3219e-08
4.17869e-08
6.39479e-08
4.32282e-09
2.37775e-08
6.70819e-08
1.49711e-07
3.43331e-07
4.81441e-07
4.27927e-07
5.24472e-07
6.74937e-07
2.4041e-06
4.27362e-07
3.03862e-09
1.16251e-11
3.56335e-13
4.97071e-16
8.81887e-18
0
0
0
0
0
0
0
0
0
0
0
0
0
0
0
0
0
0
0
0
0
0
0
0
0
0
0
0
0
0
0
0
0
0
0
0
0
0
0
0
0
0
0
0
0
0
0
0
0
0
0
0
1.25246e-10
2.37174e-10
2.59865e-10
3.29187e-10
4.43368e-10
6.44102e-10
9.8754e-10
1.50706e-09
2.42718e-09
3.35304e-09
3.77482e-09
3.53847e-09
3.30396e-09
5.27809e-09
8.81511e-09
1.51744e-08
2.57499e-08
3.9415e-08
5.07479e-08
5.37927e-08
4.73024e-08
3.70127e-08
2.82429e-08
2.48703e-08
2.60428e-08
2.94691e-08
3.2805e-08
3.08483e-08
2.33321e-08
7.66541e-09
3.53634e-09
1.21543e-08
5.60473e-09
7.80561e-09
4.19595e-08
1.33152e-07
3.74313e-07
3.45585e-07
3.80113e-07
4.87633e-07
4.80686e-07
2.19516e-07
2.97451e-08
1.16416e-10
2.4644e-12
2.51953e-14
2.44625e-16
3.48828e-34
0
0
0
0
0
0
0
0
0
0
0
0
0
0
0
0
0
0
0
0
0
0
0
0
0
0
0
0
0
0
0
0
0
0
0
0
0
0
0
0
0
0
0
0
0
0
0
0
0
0
0
0
1.97444e-11
5.04579e-11
8.32547e-11
1.36532e-10
2.56329e-10
4.813e-10
8.34969e-10
1.26719e-09
1.8657e-09
2.43187e-09
2.6245e-09
2.35833e-09
2.09269e-09
3.1411e-09
5.22401e-09
8.61638e-09
1.39174e-08
2.08701e-08
2.75894e-08
3.14635e-08
3.09627e-08
2.69869e-08
2.14948e-08
1.63565e-08
1.26254e-08
1.12719e-08
1.13648e-08
1.1764e-08
1.17094e-08
7.38581e-09
3.69959e-09
2.76577e-09
4.57008e-09
5.60473e-09
4.01573e-08
1.51843e-07
2.84644e-07
2.59498e-07
3.32608e-07
3.63203e-07
2.37097e-07
7.3625e-08
3.8484e-09
1.47889e-11
4.65993e-13
6.64418e-16
9.60213e-17
0
0
0
0
0
0
0
0
0
0
0
0
0
0
0
0
0
0
0
0
0
0
0
0
0
0
0
0
0
0
0
0
0
0
0
0
0
0
0
0
0
0
0
0
0
0
0
0
0
0
0
0
0
0
2.30465e-11
6.48115e-11
1.68489e-10
3.74551e-10
6.98886e-10
1.14745e-09
1.53156e-09
1.61132e-09
1.83579e-09
1.71948e-09
1.22927e-09
1.30735e-09
1.89317e-09
2.97439e-09
4.82631e-09
7.51225e-09
1.1035e-08
1.49255e-08
1.81502e-08
1.97679e-08
1.91491e-08
1.66881e-08
1.31481e-08
9.45117e-09
6.78325e-09
5.86224e-09
5.66788e-09
6.06758e-09
4.42668e-09
2.05294e-09
1.73277e-09
4.39549e-09
8.57291e-09
5.69382e-08
1.92138e-07
1.69812e-07
2.05919e-07
2.69792e-07
1.98108e-07
7.78245e-08
1.25433e-08
9.29538e-11
2.20877e-12
2.39908e-14
2.71026e-16
3.28516e-21
0
0
0
0
0
0
0
0
0
0
0
0
0
0
0
0
0
0
0
0
0
0
0
0
0
0
0
0
0
0
0
0
0
0
0
0
0
0
0
0
0
0
0
0
0
0
0
0
0
0
0
0
0
0
1.95364e-12
1.13835e-10
3.07555e-10
6.80901e-10
1.16951e-09
1.57216e-09
1.83465e-09
1.4812e-09
1.35552e-09
9.89326e-10
7.02869e-10
1.02482e-09
1.47606e-09
2.14229e-09
3.26031e-09
4.78651e-09
6.80902e-09
9.21067e-09
1.14661e-08
1.31422e-08
1.35754e-08
1.25307e-08
1.01632e-08
7.05388e-09
4.51768e-09
3.29827e-09
2.6315e-09
2.9692e-09
2.54882e-09
1.17575e-09
5.09451e-09
1.5589e-08
4.24742e-08
9.13426e-08
1.09415e-07
1.18445e-07
1.57684e-07
1.97634e-07
6.69181e-08
1.24324e-08
2.91577e-10
7.34146e-12
2.22751e-13
4.98149e-16
9.49529e-18
0
0
0
0
0
0
0
0
0
0
0
0
0
0
0
0
0
0
0
0
0
0
0
0
0
0
0
0
0
0
0
0
0
0
0
0
0
0
0
0
0
0
0
0
0
0
0
0
0
0
0
0
0
0
0
2.27581e-12
1.16501e-10
3.64912e-10
7.81592e-10
1.20253e-09
1.48468e-09
1.44383e-09
1.13093e-09
8.9091e-10
5.63356e-10
6.23432e-10
8.13751e-10
1.02745e-09
1.30663e-09
1.7596e-09
2.47929e-09
3.5832e-09
5.18204e-09
7.08089e-09
8.84243e-09
9.87178e-09
9.59911e-09
7.83209e-09
5.16566e-09
2.994e-09
2.05847e-09
1.43919e-09
1.89719e-09
1.7258e-09
1.59024e-09
1.35949e-08
2.90842e-08
3.80472e-08
5.38677e-08
7.0518e-08
9.34417e-08
9.73825e-08
8.9619e-08
1.05728e-08
3.43431e-10
1.70913e-11
6.22397e-13
1.04972e-15
2.17606e-16
0
0
0
0
0
0
0
0
0
0
0
0
0
0
0
0
0
0
0
0
0
0
0
0
0
0
0
0
0
0
0
0
0
0
0
0
0
0
0
0
0
0
0
0
0
0
0
0
0
0
0
0
0
0
0
0
0
2.78187e-11
3.48852e-11
7.00276e-11
1.10358e-10
1.6589e-10
2.54839e-10
3.72586e-10
5.36426e-10
3.37179e-10
4.37054e-10
4.52663e-10
3.97534e-10
2.71078e-10
5.04904e-10
1.08883e-09
2.10353e-09
3.60714e-09
5.42418e-09
7.27558e-09
8.44454e-09
8.36603e-09
6.69496e-09
4.10528e-09
2.07579e-09
1.39743e-09
9.95399e-10
1.87285e-09
3.06946e-09
5.49801e-09
9.87246e-09
1.58022e-08
2.60053e-08
3.87863e-08
5.68552e-08
7.03762e-08
3.86118e-08
2.08668e-08
3.4848e-10
1.99095e-11
1.00912e-12
2.14975e-15
3.79516e-16
7.27922e-17
0
0
0
0
0
0
0
0
0
0
0
0
0
0
0
0
0
0
0
0
0
0
0
0
0
0
0
0
0
0
0
0
0
0
0
0
0
0
0
0
0
0
0
0
0
0
0
0
0
0
0
0
0
0
0
0
0
0
6.75841e-12
1.69942e-11
3.62134e-11
4.93377e-11
2.3602e-11
4.05386e-11
1.93527e-10
1.91459e-10
2.05576e-10
8.63116e-11
5.90823e-11
1.65072e-10
4.06975e-10
9.02903e-10
1.82019e-09
3.20219e-09
4.99911e-09
6.78017e-09
7.96358e-09
7.77352e-09
5.95544e-09
3.26032e-09
1.27853e-09
6.86192e-10
1.25035e-09
2.49489e-09
4.32584e-09
5.97887e-09
9.77655e-09
1.78121e-08
2.83805e-08
3.72301e-08
4.79572e-08
3.46059e-08
8.37511e-09
1.25785e-09
2.52471e-11
1.15824e-12
3.35746e-15
5.08522e-16
1.66664e-16
0
0
0
0
0
0
0
0
0
0
0
0
0
0
0
0
0
0
0
0
0
0
0
0
0
0
0
0
0
0
0
0
0
0
0
0
0
0
0
0
0
0
0
0
0
0
0
0
0
0
0
0
0
0
0
0
0
0
0
3.28972e-12
7.56562e-12
1.68442e-11
3.2706e-11
4.06439e-11
4.26174e-11
5.1336e-11
8.04294e-11
4.50943e-11
1.42104e-11
3.91074e-11
1.19715e-10
3.15436e-10
7.52284e-10
1.58164e-09
2.90472e-09
4.71456e-09
6.49942e-09
7.69156e-09
7.41899e-09
5.56567e-09
2.84169e-09
8.99424e-10
7.95477e-10
1.86822e-09
3.00536e-09
4.27424e-09
7.64069e-09
1.4401e-08
2.19021e-08
3.13899e-08
3.28854e-08
3.47925e-08
1.1128e-08
4.25035e-10
5.17061e-11
1.75036e-12
4.1877e-15
6.60347e-16
1.91259e-16
1.27392e-21
0
0
0
0
0
0
0
0
0
0
0
0
0
0
0
0
0
0
0
0
0
0
0
0
0
0
0
0
0
0
0
0
0
0
0
0
0
0
0
0
0
0
0
0
0
0
0
0
0
0
0
0
0
0
0
0
0
0
0
0
4.11059e-12
7.46793e-12
1.46634e-11
4.21517e-11
4.31126e-11
1.24882e-11
2.30987e-11
2.91444e-12
8.39806e-12
2.4942e-11
8.31347e-11
2.37407e-10
6.00561e-10
1.33646e-09
2.61506e-09
4.34389e-09
6.18106e-09
7.36877e-09
7.23933e-09
5.62684e-09
3.29767e-09
1.55069e-09
1.26501e-09
1.97191e-09
3.55413e-09
6.81683e-09
1.21822e-08
1.76321e-08
1.73439e-08
2.31295e-08
1.88811e-08
1.43794e-08
1.55574e-09
3.88742e-11
2.9541e-12
5.94209e-15
7.88486e-16
2.32001e-16
5.08562e-21
0
0
0
0
0
0
0
0
0
0
0
0
0
0
0
0
0
0
0
0
0
0
0
0
0
0
0
0
0
0
0
0
0
0
0
0
0
0
0
0
0
0
0
0
0
0
0
0
0
0
0
0
0
0
0
0
0
0
0
0
0
0
9.62651e-12
9.97002e-12
2.4041e-11
3.57557e-11
7.9098e-12
2.95234e-12
1.35973e-12
4.6986e-12
1.52372e-11
5.34278e-11
1.66627e-10
4.4904e-10
1.07896e-09
2.19335e-09
3.79766e-09
5.53823e-09
6.85127e-09
7.37018e-09
6.50271e-09
4.54522e-09
3.00741e-09
2.75497e-09
3.76041e-09
6.19812e-09
9.67621e-09
1.26116e-08
1.39098e-08
7.22044e-09
5.70453e-09
5.3342e-09
2.37275e-09
7.40474e-11
3.69954e-12
8.97949e-14
1.05186e-15
3.07667e-16
9.0702e-18
0
0
0
0
0
0
0
0
0
0
0
0
0
0
0
0
0
0
0
0
0
0
0
0
0
0
0
0
0
0
0
0
0
0
0
0
0
0
0
0
0
0
0
0
0
0
0
0
0
0
0
0
0
0
0
0
0
0
0
0
0
0
0
0
0
1.78498e-11
2.26762e-11
4.32622e-12
1.33766e-13
5.14571e-13
2.35782e-12
8.56068e-12
3.08312e-11
1.07088e-10
3.10222e-10
7.77189e-10
1.68309e-09
3.00571e-09