/*--------------------------------*- C++ -*----------------------------------*\
  =========                 |
  \\      /  F ield         | OpenFOAM: The Open Source CFD Toolbox
   \\    /   O peration     | Website:  https://openfoam.org
    \\  /    A nd           | Version:  6
     \\/     M anipulation  |
\*---------------------------------------------------------------------------*/
FoamFile
{
    version     2.0;
    format      ascii;
    class       volScalarField;
    location    "0.005";
    object      HO2;
}
// * * * * * * * * * * * * * * * * * * * * * * * * * * * * * * * * * * * * * //

dimensions      [0 0 0 0 0 0 0];

internalField   nonuniform List<scalar> 
8000
(
6.49484e-21
2.21209e-16
1.51105e-15
1.77672e-14
3.26531e-13
6.68004e-12
9.74631e-11
7.62819e-10
3.14614e-09
8.41048e-09
1.64995e-08
2.63117e-08
4.31314e-08
6.03728e-08
6.51184e-08
6.54667e-08
8.10896e-08
1.33839e-07
2.6987e-07
8.06194e-07
3.47049e-06
1.83148e-05
3.97909e-05
4.31164e-05
4.25777e-05
4.95586e-05
6.14446e-05
5.65507e-05
4.31696e-05
3.20424e-05
2.73213e-05
3.00325e-05
3.97848e-05
5.54424e-05
6.71388e-05
7.36105e-05
7.64249e-05
8.15028e-05
8.03449e-05
8.18124e-05
8.44807e-05
8.34068e-05
7.63454e-05
7.13661e-05
5.49709e-05
1.94638e-05
3.40851e-05
4.75334e-05
5.46291e-05
2.15948e-05
2.94345e-06
3.70273e-07
4.50572e-09
0
0
0
0
0
0
0
0
0
0
0
0
0
0
0
0
0
0
0
0
0
0
0
0
0
0
0
0
0
0
0
0
0
0
0
0
0
0
0
0
0
0
0
0
0
0
0
1.16618e-19
2.63545e-15
7.1154e-15
7.08901e-14
8.73365e-13
1.66004e-11
2.72617e-10
2.58026e-09
1.19958e-08
2.94696e-08
5.39202e-08
8.20363e-08
1.13767e-07
1.5217e-07
1.52716e-07
1.29987e-07
1.37668e-07
2.02228e-07
3.50716e-07
9.00192e-07
3.8318e-06
2.63755e-05
7.00997e-05
3.94982e-05
4.25325e-05
5.87888e-05
7.66592e-05
6.346e-05
4.52526e-05
3.14684e-05
2.63825e-05
2.92957e-05
3.96593e-05
5.60915e-05
6.80279e-05
7.67627e-05
7.64629e-05
8.44583e-05
8.01353e-05
8.58223e-05
8.82881e-05
8.32571e-05
7.61954e-05
7.13809e-05
5.59033e-05
2.02227e-05
3.55505e-05
4.85868e-05
5.43966e-05
2.06183e-05
3.66377e-06
5.53784e-07
1.95142e-09
0
0
0
0
0
0
0
0
0
0
0
0
0
0
0
0
0
0
0
0
0
0
0
0
0
0
0
0
0
0
0
0
0
0
0
0
0
0
0
0
0
0
0
0
0
0
0
8.02649e-16
2.26356e-07
1.12547e-15
5.29779e-07
5.15336e-12
7.04605e-11
9.83933e-10
1.06721e-08
2.68553e-06
1.6497e-07
2.48593e-07
3.03799e-07
3.4551e-07
4.65496e-07
6.50788e-06
5.15375e-06
2.8622e-07
4.12962e-07
6.11263e-07
1.1129e-06
3.20256e-06
1.43012e-05
4.27157e-05
4.23752e-05
4.38548e-05
5.30665e-05
0.000196958
6.90896e-05
4.07276e-05
2.76686e-05
2.40366e-05
2.81037e-05
3.99102e-05
5.76878e-05
6.98877e-05
7.60627e-05
7.93066e-05
8.44085e-05
8.31162e-05
8.54915e-05
8.80768e-05
8.69016e-05
7.90472e-05
7.38854e-05
5.63919e-05
2.13504e-05
0.000182174
4.72815e-05
3.27486e-05
1.36361e-05
2.5393e-06
3.23229e-07
5.24458e-10
0
0
0
0
0
0
0
0
0
0
0
0
0
0
0
0
0
0
0
0
0
0
0
0
0
0
0
0
0
0
0
0
0
0
0
0
0
0
0
0
0
0
0
0
0
0
0
1.18054e-19
4.50508e-14
1.98811e-12
2.47599e-11
1.42267e-10
4.51881e-10
2.85259e-09
2.17292e-08
1.67237e-07
6.66349e-06
1.19383e-06
1.31765e-06
1.25666e-06
7.86728e-06
4.09412e-07
3.61213e-07
4.64444e-07
1.10315e-06
1.19446e-05
1.89782e-06
3.76695e-06
3.01419e-05
3.10984e-05
3.74543e-05
4.39536e-05
4.08423e-05
4.21143e-05
3.83653e-05
3.00815e-05
7.51765e-05
2.27662e-05
2.83813e-05
4.15788e-05
6.02342e-05
7.25652e-05
7.70903e-05
8.22543e-05
8.13757e-05
8.25984e-05
8.91168e-05
8.77397e-05
8.66263e-05
7.87172e-05
7.39349e-05
5.78792e-05
2.10101e-05
3.77695e-05
3.80849e-05
2.42555e-05
7.00697e-06
1.28691e-06
1.19876e-07
1.73094e-11
0
0
0
0
0
0
0
0
0
0
0
0
0
0
0
0
0
0
0
0
0
0
0
0
0
0
0
0
0
0
0
0
0
0
0
0
0
0
0
0
0
0
0
0
0
0
0
1.73474e-17
6.22043e-14
9.80238e-07
3.90285e-10
1.71931e-06
2.96409e-09
7.76139e-09
1.66565e-06
2.35412e-07
8.28707e-06
5.00609e-05
4.06416e-05
2.18245e-05
1.00253e-06
5.30794e-07
6.70997e-06
9.09401e-07
1.50878e-05
3.24901e-06
3.92887e-06
2.37622e-05
3.22784e-05
2.33967e-05
9.8196e-05
0.00013081
4.05546e-05
3.35269e-05
6.7708e-05
4.17279e-05
2.64068e-05
2.37097e-05
3.07857e-05
4.47908e-05
6.18872e-05
7.76934e-05
0.000219173
8.3026e-05
8.41187e-05
9.0307e-05
8.86732e-05
8.73476e-05
8.62596e-05
8.18903e-05
7.65483e-05
5.94582e-05
2.11134e-05
3.74623e-05
2.98651e-05
1.31585e-05
3.49213e-06
7.00126e-07
2.7724e-08
0
0
0
0
0
0
0
0
0
0
0
0
0
0
0
0
0
0
0
0
0
0
0
0
0
0
0
0
0
0
0
0
0
0
0
0
0
0
0
0
0
0
0
0
0
0
0
0
6.26723e-16
1.01013e-14
8.81797e-11
1.01132e-06
3.54655e-08
1.37195e-06
1.79219e-08
3.84972e-08
1.34373e-07
4.68351e-07
1.27121e-06
1.32816e-06
8.70232e-07
5.48708e-07
5.26307e-07
8.42678e-07
2.10584e-06
2.42685e-05
9.76848e-06
3.94509e-05
1.10028e-05
4.23372e-05
2.39506e-05
0.000106559
0.00014424
4.0591e-05
3.47335e-05
9.48324e-05
8.52223e-05
2.3962e-05
2.35807e-05
3.48268e-05
0.000116575
6.44518e-05
7.64531e-05
8.334e-05
8.24981e-05
8.78392e-05
8.96891e-05
8.81571e-05
8.68625e-05
8.58361e-05
0.000227464
7.65492e-05
6.12479e-05
2.23576e-05
3.82221e-05
2.79712e-05
9.19076e-06
2.52876e-06
8.0361e-07
1.75425e-07
0
0
0
0
0
0
0
0
0
0
0
0
0
0
0
0
0
0
0
0
0
0
0
0
0
0
0
0
0
0
0
0
0
0
0
0
0
0
0
0
0
0
0
0
0
0
0
0
4.67971e-16
1.49247e-13
1.98436e-11
2.96133e-10
1.70223e-09
4.62474e-09
1.76201e-06
6.65516e-08
1.45111e-07
2.46866e-07
4.87893e-06
6.07482e-06
5.60848e-06
5.23797e-07
7.79846e-07
1.65294e-06
3.55765e-06
9.56057e-06
8.31964e-05
1.87651e-05
6.25385e-05
1.97814e-05
7.36914e-05
4.18144e-05
5.19324e-05
3.60393e-05
3.69559e-05
3.23959e-05
2.72588e-05
2.37552e-05
2.67371e-05
3.8381e-05
5.36039e-05
6.71183e-05
7.67189e-05
8.60899e-05
8.51145e-05
9.09262e-05
8.88653e-05
0.000224257
8.62694e-05
8.53395e-05
8.49261e-05
7.64907e-05
6.33086e-05
2.50472e-05
3.96557e-05
3.24636e-05
9.33433e-06
2.30887e-06
1.10667e-06
3.70356e-07
0
0
0
0
0
0
0
0
0
0
0
0
0
0
0
0
0
0
0
0
0
0
0
0
0
0
0
0
0
0
0
0
0
0
0
0
0
0
0
0
0
0
0
0
0
0
0
0
2.68102e-07
4.15636e-07
1.95577e-11
3.65759e-10
1.75082e-09
1.50759e-06
6.55637e-08
2.55524e-07
6.50711e-06
4.18171e-07
3.86107e-07
3.90616e-07
4.90129e-07
1.01828e-06
1.12732e-05
1.69637e-05
3.3569e-05
6.62158e-05
3.7712e-05
0.000116401
2.78555e-05
2.87275e-05
9.38736e-05
4.19379e-05
4.00801e-05
0.000152564
4.11416e-05
3.54201e-05
2.79503e-05
2.69515e-05
3.69395e-05
4.73458e-05
5.91451e-05
7.02808e-05
8.00248e-05
8.36517e-05
8.8798e-05
8.99354e-05
8.78589e-05
8.65865e-05
8.556e-05
8.47971e-05
8.44879e-05
7.91653e-05
6.56132e-05
2.88535e-05
4.1249e-05
2.76058e-05
8.3804e-06
6.08139e-08
3.24352e-08
2.18627e-07
0
0
0
0
0
0
0
0
0
0
0
0
0
0
0
0
0
0
0
0
0
0
0
0
0
0
0
0
0
0
0
0
0
0
0
0
0
0
0
0
0
0
0
0
0
0
0
0
2.74739e-07
6.17282e-07
1.27803e-10
3.38947e-09
1.22499e-06
4.4185e-08
2.46931e-06
7.12774e-07
1.60077e-05
1.07398e-06
8.17555e-06
7.47029e-06
9.62012e-07
1.73801e-06
2.91726e-06
2.23266e-05
4.07588e-05
9.30721e-05
6.85796e-05
4.06992e-05
3.69997e-05
0.000106981
3.79998e-05
0.000132052
0.000142657
4.44876e-05
4.29491e-05
3.56672e-05
2.7817e-05
3.51193e-05
9.74691e-05
0.000110284
6.63102e-05
7.51838e-05
8.63127e-05
8.6175e-05
9.16995e-05
8.87686e-05
8.66962e-05
8.55577e-05
0.000223341
0.000224205
8.40481e-05
7.90596e-05
0.000177973
6.1738e-05
4.38407e-05
3.31844e-05
7.38613e-06
1.36393e-06
9.73064e-07
1.1914e-07
0
0
0
0
0
0
0
0
0
0
0
0
0
0
0
0
0
0
0
0
0
0
0
0
0
0
0
0
0
0
0
0
0
0
0
0
0
0
0
0
0
0
0
0
0
0
0
0
1.36061e-16
5.2538e-07
8.29308e-07
1.2473e-06
2.51433e-08
2.27232e-06
2.59168e-07
6.27415e-07
1.36012e-06
1.11792e-05
1.71783e-06
2.40939e-06
1.49609e-05
2.13741e-05
4.2799e-05
3.27539e-05
1.22749e-05
3.12977e-05
3.85552e-05
4.17981e-05
4.25067e-05
4.35993e-05
4.39403e-05
4.4785e-05
4.4801e-05
4.46329e-05
4.11605e-05
3.41314e-05
2.92506e-05
9.46342e-05
5.1461e-05
6.34132e-05
0.000165689
7.70805e-05
8.46603e-05
0.000222939
9.05535e-05
8.74575e-05
8.54249e-05
8.44274e-05
0.000223392
8.35152e-05
8.3595e-05
7.89063e-05
6.3009e-05
2.7465e-05
0.000154166
2.91706e-05
6.10094e-06
1.16153e-06
1.02247e-06
1.19228e-07
0
0
0
0
0
0
0
0
0
0
0
0
0
0
0
0
0
0
0
0
0
0
0
0
0
0
0
0
0
0
0
0
0
0
0
0
0
0
0
0
0
0
0
0
0
0
0
0
3.1715e-07
2.90185e-10
5.4771e-09
3.06339e-08
1.11324e-07
4.57978e-06
6.94514e-06
1.09866e-05
3.67943e-06
4.80671e-06
6.46236e-06
2.45942e-05
1.01485e-05
3.27969e-05
1.25132e-05
1.34345e-05
1.77164e-05
0.000135524
0.000114269
6.65602e-05
4.37798e-05
0.000117288
4.4679e-05
9.92071e-05
0.000115368
4.21512e-05
3.8118e-05
3.36282e-05
3.47405e-05
4.5236e-05
5.65552e-05
6.72921e-05
7.62598e-05
8.34938e-05
8.68263e-05
0.000222376
8.92155e-05
0.000222369
8.41044e-05
8.32118e-05
8.28666e-05
8.27928e-05
8.31501e-05
7.60021e-05
6.10182e-05
2.68869e-05
4.52348e-05
2.52629e-05
5.31985e-06
3.78221e-08
8.16952e-07
1.20083e-07
0
0
0
0
0
0
0
0
0
0
0
0
0
0
0
0
0
0
0
0
0
0
0
0
0
0
0
0
0
0
0
0
0
0
0
0
0
0
0
0
0
0
0
0
0
0
0
0
1.06789e-11
2.64489e-08
1.6177e-07
5.8996e-06
1.21969e-06
1.10739e-05
1.46361e-05
8.09985e-06
1.95969e-05
2.0644e-05
2.21578e-05
2.33541e-05
2.70177e-05
6.64352e-05
2.47541e-05
2.51586e-05
2.87139e-05
0.000140864
0.000121082
0.000107809
4.34589e-05
4.33056e-05
4.2425e-05
4.3283e-05
4.09863e-05
3.93576e-05
3.71645e-05
8.85554e-05
4.48436e-05
0.000107215
6.45604e-05
7.51227e-05
8.10943e-05
0.000216562
8.52083e-05
8.99507e-05
0.000221272
8.46142e-05
8.27438e-05
8.1972e-05
8.18291e-05
8.21794e-05
0.000226666
7.57647e-05
5.83915e-05
5.88153e-05
0.000106995
1.03263e-05
4.56272e-06
1.41145e-06
2.20228e-08
1.49718e-07
7.40465e-09
0
0
0
0
0
0
0
0
0
0
0
0
0
0
0
0
0
0
0
0
0
0
0
0
0
0
0
0
0
0
0
0
0
0
0
0
0
0
0
0
0
0
0
0
0
0
0
4.54676e-09
1.1425e-06
4.27393e-06
1.94062e-05
3.02496e-05
4.13678e-05
2.00197e-05
7.56927e-05
3.88792e-05
0.000121008
8.89257e-05
8.25692e-05
3.92441e-05
8.2612e-05
3.85288e-05
3.89245e-05
0.000128048
4.27211e-05
4.1851e-05
9.87731e-05
4.20818e-05
4.09383e-05
4.19369e-05
7.57021e-05
4.04903e-05
3.90111e-05
3.88852e-05
9.34125e-05
5.02484e-05
6.34932e-05
7.18281e-05
7.87593e-05
8.77038e-05
8.35355e-05
8.31668e-05
8.74646e-05
0.000220336
0.000220655
8.13859e-05
8.07537e-05
8.08527e-05
0.0002243
0.000226292
7.54099e-05
5.49069e-05
7.81889e-05
4.50894e-05
8.43902e-06
3.82974e-06
1.48887e-06
5.04688e-07
1.57937e-07
9.11915e-08
1.31716e-08
0
0
0
0
0
0
0
0
0
0
0
0
0
0
0
0
0
0
0
0
0
0
0
0
0
0
0
0
0
0
0
0
0
0
0
0
0
0
0
0
0
0
0
0
0
0
6.25149e-07
5.60985e-05
6.42851e-05
7.21169e-05
3.82326e-05
0.000131941
0.000116736
4.21423e-05
4.21835e-05
4.40416e-05
4.39738e-05
4.26348e-05
4.20889e-05
4.22012e-05
4.29821e-05
4.44729e-05
4.47758e-05
0.00012781
4.099e-05
7.31706e-05
8.4617e-05
4.17353e-05
4.19623e-05
4.40448e-05
8.48382e-05
4.40085e-05
9.59421e-05
4.97258e-05
6.05245e-05
7.41088e-05
8.05028e-05
8.63196e-05
0.000217022
8.44865e-05
8.07814e-05
8.10935e-05
8.27497e-05
0.000218785
7.9965e-05
7.95955e-05
7.99154e-05
8.08824e-05
7.81098e-05
7.23594e-05
5.19591e-05
2.82361e-05
4.18094e-05
1.35652e-05
3.10111e-06
1.25768e-06
3.93515e-07
1.78136e-07
1.29978e-07
9.04916e-08
8.11909e-09
0
0
0
0
0
0
0
0
0
0
0
0
0
0
0
0
0
0
0
0
0
0
0
0
0
0
0
0
0
0
0
0
0
0
0
0
0
0
0
0
0
0
0
0
0
4.50028e-05
0.000102625
9.27784e-05
9.2298e-05
3.94162e-05
7.74419e-05
4.09902e-05
0.000105077
7.59457e-05
5.31789e-05
0.000107849
5.52667e-05
9.5954e-05
4.31622e-05
8.66456e-05
4.09185e-05
4.26473e-05
4.20495e-05
3.92997e-05
6.06133e-05
8.25832e-05
6.91715e-05
4.18886e-05
4.54323e-05
4.92658e-05
0.000123414
5.3025e-05
5.73647e-05
6.88303e-05
0.000204902
0.00020872
0.000215589
0.0002173
0.000215673
0.000213976
0.000213262
7.32835e-05
7.21966e-05
0.000218102
7.44816e-05
0.000222965
8.0271e-05
0.000224546
0.00020759
4.6981e-05
0.000137138
3.72104e-05
1.0963e-05
2.73234e-06
1.15434e-06
3.58055e-07
1.7543e-07
1.57527e-07
1.57987e-07
6.55525e-08
0
0
0
0
0
0
0
0
0
0
0
0
0
0
0
0
0
0
0
0
0
0
0
0
0
0
0
0
0
0
0
0
0
0
0
0
0
0
0
0
0
0
0
0
0
7.88528e-05
3.30278e-05
4.35078e-05
0.000173494
6.06174e-05
6.6266e-05
3.52728e-05
3.80751e-05
7.56865e-05
7.91993e-05
0.000137193
0.000163428
7.16424e-05
5.04086e-05
3.81102e-05
3.4498e-05
3.59464e-05
3.71782e-05
3.61579e-05
6.00614e-05
3.77214e-05
3.76917e-05
4.28335e-05
5.19748e-05
0.000124538
6.07786e-05
6.26977e-05
6.73765e-05
7.40936e-05
8.14599e-05
0.000208495
8.4653e-05
7.94586e-05
7.46496e-05
7.14951e-05
0.000207648
0.000206756
6.70866e-05
0.000213893
0.000218159
7.15067e-05
0.000223877
0.000222408
6.75955e-05
4.1894e-05
3.5819e-05
3.16064e-05
8.54121e-06
2.2989e-06
1.09926e-06
3.24837e-07
1.32973e-07
1.17819e-07
1.62972e-07
2.68276e-07
0
0
0
0
0
0
0
0
0
0
0
0
0
0
0
0
0
0
0
0
0
0
0
0
0
0
0
0
0
0
0
0
0
0
0
0
0
0
0
0
0
0
0
0
0
8.86825e-06
3.16402e-05
2.99563e-05
5.82605e-05
8.54009e-05
5.04651e-05
3.29051e-05
3.48294e-05
5.64695e-05
0.000198447
0.000130919
0.000224711
0.000194793
6.89978e-05
4.22745e-05
3.1646e-05
2.95497e-05
3.10079e-05
3.42851e-05
3.44241e-05
3.31852e-05
3.53804e-05
4.25053e-05
0.000114113
0.00010485
6.51287e-05
0.000131287
0.000159387
0.000173298
0.00018636
7.38415e-05
7.63862e-05
7.28872e-05
7.15392e-05
0.00019746
0.000193933
0.000193865
6.4319e-05
6.89914e-05
0.00021498
0.000219081
7.21579e-05
0.000218288
6.56468e-05
8.34063e-05
0.000128826
2.03588e-05
6.64377e-06
2.01858e-06
1.01024e-06
1.82998e-07
3.23942e-08
6.23363e-09
1.25213e-08
2.66049e-09
0
0
0
0
0
0
0
0
0
0
0
0
0
0
0
0
0
0
0
0
0
0
0
0
0
0
0
0
0
0
0
0
0
0
0
0
0
0
0
0
0
0
0
0
0
7.72984e-06
2.81541e-05
1.78229e-05
2.66573e-05
5.99489e-05
8.84899e-05
2.59636e-05
2.61077e-05
4.5667e-05
7.10521e-05
9.60261e-05
0.000222382
0.000218383
0.00017962
4.41214e-05
2.98816e-05
5.30534e-05
2.74274e-05
5.78417e-05
3.06454e-05
3.00169e-05
7.08262e-05
3.77499e-05
4.5832e-05
5.49565e-05
5.79271e-05
5.87179e-05
6.01333e-05
6.20215e-05
6.49155e-05
6.78354e-05
0.000198812
0.000196462
6.22284e-05
0.000183932
5.51133e-05
5.51059e-05
5.75768e-05
6.24222e-05
6.94449e-05
0.000216281
0.000218997
7.06329e-05
5.83142e-05
7.38208e-05
0.00010051
2.04834e-05
5.28045e-06
1.77269e-06
4.77938e-07
2.87268e-08
0
0
0
0
0
0
0
0
0
0
0
0
0
0
0
0
0
0
0
0
0
0
0
0
0
0
0
0
0
0
0
0
0
0
0
0
0
0
0
0
0
0
0
0
0
0
0
0
0
7.27109e-06
1.90516e-05
1.81832e-05
1.1735e-05
1.76541e-05
1.70066e-05
1.29389e-05
1.35663e-05
2.24485e-05
3.38797e-05
4.22172e-05
4.14956e-05
0.000114941
7.10786e-05
2.21205e-05
1.94735e-05
2.02919e-05
2.39974e-05
2.75489e-05
2.78094e-05
2.81212e-05
2.96981e-05
3.22162e-05
3.75132e-05
4.36084e-05
9.67946e-05
4.98759e-05
0.00010278
5.26124e-05
5.67295e-05
0.000161452
0.000169463
5.72503e-05
0.000174671
0.000156153
4.93772e-05
5.10511e-05
5.84268e-05
0.000183696
6.34084e-05
0.000208675
6.95394e-05
6.35226e-05
0.00015932
8.13496e-05
3.81554e-05
1.61098e-05
4.11093e-06
1.40576e-06
3.24473e-07
5.80045e-10
0
0
0
0
0
0
0
0
0
0
0
0
0
0
0
0
0
0
0
0
0
0
0
0
0
0
0
0
0
0
0
0
0
0
0
0
0
0
0
0
0
0
0
0
0
0
0
0
0
7.02174e-06
1.17698e-05
1.97026e-05
2.02904e-05
1.28155e-05
9.59889e-06
9.04595e-06
8.75603e-06
1.03172e-05
1.26946e-05
1.49306e-05
1.56137e-05
1.43388e-05
1.21295e-05
1.22001e-05
1.11764e-05
1.51842e-05
2.09674e-05
2.4082e-05
7.28786e-05
2.55083e-05
7.58867e-05
2.64678e-05
2.92689e-05
3.36866e-05
3.80662e-05
3.99893e-05
4.0775e-05
4.4717e-05
0.000114173
0.000131626
4.94373e-05
0.000142581
0.000143067
4.52382e-05
4.5e-05
0.000125544
5.44248e-05
0.0001514
5.98653e-05
6.46011e-05
0.000203559
5.86561e-05
4.66268e-05
0.000104805
3.40942e-05
1.27848e-05
3.15672e-06
1.08362e-06
2.93859e-07
6.98736e-09
0
0
0
0
0
0
0
0
0
0
0
0
0
0
0
0
0
0
0
0
0
0
0
0
0
0
0
0
0
0
0
0
0
0
0
0
0
0
0
0
0
0
0
0
0
0
0
0
0
6.94416e-06
8.14261e-06
1.17938e-05
1.75675e-05
2.11997e-05
1.83336e-05
1.62582e-05
1.42331e-05
1.2674e-05
1.29848e-05
1.35883e-05
1.47625e-05
1.50239e-05
1.36832e-05
1.13818e-05
9.33282e-06
1.03483e-05
4.16131e-05
1.77772e-05
2.34368e-05
7.30261e-05
2.16473e-05
2.31031e-05
2.50879e-05
2.71414e-05
2.94256e-05
0.000105644
3.41241e-05
3.84459e-05
0.000111705
4.23307e-05
4.21229e-05
4.1636e-05
4.10948e-05
4.0455e-05
4.13498e-05
4.55503e-05
5.29959e-05
0.000121942
0.000156604
6.08071e-05
6.12824e-05
5.37191e-05
0.000125082
0.000126604
2.93506e-05
1.00809e-05
2.6695e-06
1.12835e-06
3.50553e-07
1.01928e-07
2.59706e-10
0
0
0
0
0
0
0
0
0
0
0
0
0
0
0
0
0
0
0
0
0
0
0
0
0
0
0
0
0
0
0
0
0
0
0
0
0
0
0
0
0
0
0
0
0
0
0
0
6.96184e-06
7.3318e-06
8.18022e-06
1.0581e-05
1.57127e-05
1.99329e-05
2.09938e-05
2.1223e-05
2.11307e-05
2.20931e-05
2.41169e-05
2.51248e-05
2.37417e-05
2.00883e-05
1.59479e-05
1.23844e-05
1.01442e-05
9.83675e-06
1.19623e-05
4.8738e-05
5.14059e-05
1.71826e-05
2.02521e-05
9.46566e-05
9.30631e-05
2.56316e-05
2.7395e-05
2.9352e-05
3.31479e-05
0.00012442
0.000128538
3.62618e-05
3.58016e-05
3.55664e-05
0.000121063
3.75596e-05
4.46703e-05
9.8602e-05
0.0001084
5.8866e-05
6.20883e-05
5.80773e-05
4.83076e-05
3.55893e-05
3.16559e-05
2.50314e-05
7.78874e-06
2.29751e-06
1.06042e-06
4.55356e-07
2.45637e-07
1.92828e-07
0
0
0
0
0
0
0
0
0
0
0
0
0
0
0
0
0
0
0
0
0
0
0
0
0
0
0
0
0
0
0
0
0
0
0
0
0
0
0
0
0
0
0
0
0
0
0
0
7.03499e-06
7.27663e-06
7.55345e-06
8.13377e-06
1.01595e-05
1.37182e-05
1.64658e-05
1.93872e-05
2.28911e-05
2.84433e-05
3.38362e-05
3.56492e-05
3.27e-05
2.68603e-05
2.09943e-05
1.62403e-05
1.23597e-05
1.14324e-05
9.66989e-06
1.09627e-05
1.27439e-05
1.47378e-05
1.78363e-05
2.11486e-05
2.22649e-05
2.37487e-05
9.43211e-05
2.60018e-05
2.84846e-05
3.01472e-05
3.08659e-05
0.000132672
0.000134259
3.19686e-05
3.30048e-05
3.56172e-05
4.12331e-05
4.9762e-05
5.40949e-05
5.61024e-05
5.716e-05
5.4237e-05
4.28377e-05
3.10772e-05
3.36509e-05
2.06094e-05
6.05744e-06
2.03174e-06
9.6126e-07
3.36219e-07
2.55813e-07
2.45618e-07
0
0
0
0
0
0
0
0
0
0
0
0
0
0
0
0
0
0
0
0
0
0
0
0
0
0
0
0
0
0
0
0
0
0
0
0
0
0
0
0
0
0
0
0
0
0
0
0
7.15703e-06
7.45158e-06
7.65907e-06
7.86293e-06
8.53351e-06
1.00555e-05
1.26272e-05
1.70332e-05
2.48736e-05
3.38802e-05
4.04558e-05
4.20889e-05
3.86194e-05
3.19457e-05
2.52863e-05
1.99458e-05
1.55296e-05
1.18889e-05
1.06194e-05
9.76705e-06
4.04171e-05
1.4152e-05
1.70953e-05
1.92924e-05
2.08392e-05
2.24233e-05
2.30854e-05
2.34809e-05
2.50039e-05
2.60363e-05
2.70921e-05
0.000117684
2.8698e-05
2.90015e-05
3.04606e-05
3.43838e-05
6.81363e-05
4.29916e-05
5.20886e-05
5.33585e-05
5.38669e-05
0.000142126
3.74104e-05
2.78795e-05
3.38702e-05
1.67416e-05
4.84451e-06
1.75905e-06
6.01492e-07
2.9248e-07
2.40528e-07
3.69547e-08
0
0
0
0
0
0
0
0
0
0
0
0
0
0
0
0
0
0
0
0
0
0
0
0
0
0
0
0
0
0
0
0
0
0
0
0
0
0
0
0
0
0
0
0
0
0
0
0
7.33934e-06
7.7326e-06
7.93651e-06
8.25093e-06
8.6575e-06
9.70925e-06
1.28743e-05
1.93865e-05
2.83036e-05
3.60622e-05
4.10443e-05
4.27806e-05
4.05639e-05
3.49223e-05
2.84315e-05
2.30269e-05
1.85236e-05
1.43791e-05
1.25352e-05
1.0171e-05
1.0624e-05
1.33781e-05
1.73186e-05
1.84289e-05
1.94299e-05
7.73225e-05
8.13788e-05
2.15783e-05
2.21923e-05
2.30901e-05
2.42869e-05
2.5363e-05
2.5956e-05
2.67599e-05
2.88922e-05
3.31736e-05
3.64143e-05
4.01362e-05
4.43317e-05
5.05144e-05
5.01398e-05
4.54206e-05
3.33658e-05
0.000109946
3.2322e-05
1.36093e-05
3.86543e-06
1.45592e-06
4.41146e-07
2.73017e-07
6.65629e-08
0
0
0
0
0
0
0
0
0
0
0
0
0
0
0
0
0
0
0
0
0
0
0
0
0
0
0
0
0
0
0
0
0
0
0
0
0
0
0
0
0
0
0
0
0
0
0
0
0
7.59657e-06
8.07946e-06
8.51357e-06
8.85398e-06
9.63153e-06
1.15325e-05
1.5381e-05
2.18951e-05
2.81635e-05
3.29145e-05
3.67425e-05
3.95014e-05
3.94712e-05
3.60659e-05
3.06629e-05
2.54847e-05
2.11111e-05
1.69987e-05
1.34429e-05
1.24056e-05
1.10525e-05
1.25992e-05
5.0008e-05
1.69432e-05
1.79549e-05
1.87222e-05
1.9562e-05
1.99925e-05
2.01949e-05
2.09624e-05
2.20653e-05
2.30089e-05
2.37984e-05
7.60506e-05
5.80107e-05
3.09889e-05
3.28571e-05
3.69652e-05
4.18635e-05
4.73069e-05
4.6012e-05
4.03075e-05
2.96005e-05
2.8406e-05
2.9445e-05
1.117e-05
3.1931e-06
1.16954e-06
3.6894e-07
2.54965e-07
5.28854e-08
0
0
0
0
0
0
0
0
0
0
0
0
0
0
0
0
0
0
0
0
0
0
0
0
0
0
0
0
0
0
0
0
0
0
0
0
0
0
0
0
0
0
0
0
0
0
0
0
0
7.89296e-06
8.76602e-06
9.20054e-06
1.04524e-05
1.18064e-05
1.38172e-05
1.71909e-05
2.13706e-05
2.43078e-05
2.73109e-05
3.09851e-05
3.45964e-05
3.65875e-05
3.57267e-05
3.22429e-05
2.76143e-05
2.33289e-05
1.93428e-05
1.54923e-05
1.41399e-05
1.24955e-05
1.27022e-05
1.4393e-05
1.58698e-05
5.70979e-05
1.75311e-05
1.80396e-05
7.38337e-05
1.88869e-05
1.94108e-05
2.02535e-05
2.11368e-05
2.20479e-05
2.34652e-05
2.63228e-05
2.80783e-05
2.90019e-05
3.39327e-05
3.9292e-05
4.12269e-05
4.08761e-05
3.56603e-05
2.67418e-05
0.000120324
2.5986e-05
8.99472e-06
2.75777e-06
9.16584e-07
3.22195e-07
1.5706e-07
3.17666e-11
0
0
0
0
0
0
0
0
0
0
0
0
0
0
0
0
0
0
0
0
0
0
0
0
0
0
0
0
0
0
0
0
0
0
0
0
0
0
0
0
0
0
0
0
0
0
0
0
0
8.3919e-06
1.01627e-05
1.17673e-05
1.29015e-05
1.40455e-05
1.49685e-05
1.70478e-05
1.84675e-05
1.97459e-05
2.19994e-05
2.55623e-05
2.95731e-05
3.28104e-05
3.43717e-05
3.3112e-05
2.95436e-05
2.53555e-05
2.14224e-05
1.77819e-05
1.49746e-05
6.19214e-05
1.35787e-05
1.40589e-05
1.53089e-05
6.1003e-05
1.65991e-05
1.70841e-05
1.78421e-05
1.79794e-05
1.82782e-05
1.88454e-05
1.95319e-05
2.0397e-05
2.19829e-05
2.38424e-05
2.43556e-05
2.55509e-05
3.11861e-05
3.66988e-05
3.79671e-05
0.000131817
3.16687e-05
2.55402e-05
3.27615e-05
2.19416e-05
7.03233e-06
2.34659e-06
6.84139e-07
2.75824e-07
1.06542e-07
0
0
0
0
0
0
0
0
0
0
0
0
0
0
0
0
0
0
0
0
0
0
0
0
0
0
0
0
0
0
0
0
0
0
0
0
0
0
0
0
0
0
0
0
0
0
0
0
0
0
9.08942e-06
1.27524e-05
1.42198e-05
1.43313e-05
1.44806e-05
1.50986e-05
1.52894e-05
1.50935e-05
1.56676e-05
1.76463e-05
2.10864e-05
2.51101e-05
2.88905e-05
3.20579e-05
3.30974e-05
3.11433e-05
2.73125e-05
2.33747e-05
1.98183e-05
1.68371e-05
1.63308e-05
1.60358e-05
1.46974e-05
1.51475e-05
1.5747e-05
1.62458e-05
8.44634e-05
1.72796e-05
1.73935e-05
1.74966e-05
1.78264e-05
1.82704e-05
1.93753e-05
2.021e-05
2.06742e-05
2.06264e-05
2.28566e-05
2.91205e-05
3.38527e-05
3.44587e-05
3.26956e-05
2.84161e-05
2.62051e-05
3.30628e-05
1.78803e-05
5.51037e-06
1.93862e-06
5.05173e-07
2.22954e-07
4.38133e-08
0
0
0
0
0
0
0
0
0
0
0
0
0
0
0
0
0
0
0
0
0
0
0
0
0
0
0
0
0
0
0
0
0
0
0
0
0
0
0
0
0
0
0
0
0
0
0
0
0
0
1.12351e-05
1.56208e-05
1.60593e-05
1.57244e-05
1.51262e-05
1.39122e-05
1.25748e-05
1.19157e-05
1.25252e-05
1.45935e-05
1.76117e-05
2.1334e-05
2.51855e-05
2.92718e-05
3.21385e-05
3.20032e-05
2.91214e-05
2.52673e-05
2.17057e-05
1.88905e-05
1.69904e-05
1.82988e-05
1.70224e-05
1.59425e-05
1.60427e-05
8.76212e-05
8.38768e-05
1.7083e-05
1.7067e-05
1.69898e-05
7.88841e-05
1.76105e-05
1.89721e-05
1.82541e-05
1.72667e-05
1.78263e-05
2.09019e-05
2.74953e-05
3.06301e-05
3.07139e-05
2.90523e-05
2.56504e-05
2.81468e-05
7.00058e-05
1.44229e-05
4.31081e-06
1.62004e-06
4.15398e-07
1.05698e-07
8.7854e-09
9.52686e-10
0
0
0
0
0
0
0
0
0
0
0
0
0
0
0
0
0
0
0
0
0
0
0
0
0
0
0
0
0
0
0
0
0
0
0
0
0
0
0
0
0
0
0
0
0
0
0
0
0
4.25341e-06
7.2376e-06
9.20252e-06
1.00902e-05
9.82733e-06
8.97398e-06
8.3024e-06
8.35084e-06
9.37892e-06
1.12502e-05
1.37171e-05
1.70354e-05
2.09385e-05
2.54209e-05
2.96492e-05
3.18678e-05
3.10827e-05
2.81101e-05
2.46925e-05
2.19191e-05
2.00027e-05
1.91714e-05
2.09348e-05
2.04433e-05
1.83398e-05
1.80215e-05
1.78397e-05
1.75455e-05
1.70787e-05
1.6556e-05
1.65785e-05
1.73528e-05
1.51908e-05
1.34749e-05
1.31421e-05
1.42947e-05
1.8308e-05
2.51825e-05
2.58893e-05
2.61296e-05
2.51862e-05
2.39787e-05
0.000103975
2.55431e-05
9.15051e-06
2.72938e-06
8.42859e-07
2.36275e-07
9.60866e-10
0
0
0
0
0
0
0
0
0
0
0
0
0
0
0
0
0
0
0
0
0
0
0
0
0
0
0
0
0
0
0
0
0
0
0
0
0
0
0
0
0
0
0
0
0
0
0
0
0
0
0
4.97708e-07
1.51355e-06
2.64904e-06
3.5732e-06
4.1237e-06
4.40674e-06
4.70607e-06
5.356e-06
6.5349e-06
8.21553e-06
1.0194e-05
1.25135e-05
1.58369e-05
1.99574e-05
2.43326e-05
2.79888e-05
2.96077e-05
2.89742e-05
2.69401e-05
2.46881e-05
2.28961e-05
2.17731e-05
2.1885e-05
2.29064e-05
2.32241e-05
2.29504e-05
2.20626e-05
2.06253e-05
1.79738e-05
1.52348e-05
1.40758e-05
1.39465e-05
1.15213e-05
1.03673e-05
1.01065e-05
1.17879e-05
1.65917e-05
2.1451e-05
2.13205e-05
2.23475e-05
2.2247e-05
0.000113119
7.11991e-05
1.71451e-05
5.19686e-06
1.66266e-06
4.45007e-07
4.68724e-08
0
0
0
0
0
0
0
0
0
0
0
0
0
0
0
0
0
0
0
0
0
0
0
0
0
0
0
0
0
0
0
0
0
0
0
0
0
0
0
0
0
0
0
0
0
0
0
0
0
0
0
0
7.28448e-08
3.3125e-07
7.3322e-07
1.20263e-06
1.68599e-06
2.16327e-06
2.71938e-06
3.51544e-06
4.65165e-06
6.11578e-06
7.78276e-06
9.66654e-06
1.20667e-05
1.555e-05
1.94011e-05
2.30038e-05
2.55653e-05
2.6524e-05
2.61458e-05
2.50831e-05
2.40253e-05
2.31523e-05
2.30702e-05
2.3375e-05
2.4029e-05
2.48561e-05
2.50498e-05
2.24157e-05
1.85576e-05
1.42294e-05
1.15832e-05
1.0106e-05
1.03506e-05
9.13849e-06
8.90089e-06
1.10755e-05
1.68689e-05
1.76611e-05
1.8794e-05
2.04884e-05
2.30839e-05
2.95686e-05
2.59822e-05
1.00726e-05
2.95317e-06
9.4368e-07
2.67666e-07
1.66729e-10
0
0
0
0
0
0
0
0
0
0
0
0
0
0
0
0
0
0
0
0
0
0
0
0
0
0
0
0
0
0
0
0
0
0
0
0
0
0
0
0
0
0
0
0
0
0
0
0
0
0
0
0
1.42551e-08
7.73338e-08
2.09598e-07
4.22276e-07
7.32235e-07
1.13885e-06
1.67565e-06
2.42495e-06
3.41389e-06
4.63754e-06
6.05648e-06
7.68779e-06
9.67216e-06
1.22862e-05
1.57157e-05
1.89479e-05
2.15354e-05
2.31267e-05
2.37292e-05
2.37092e-05
2.35096e-05
2.339e-05
2.35908e-05
2.39617e-05
2.4537e-05
2.52147e-05
2.47527e-05
2.24591e-05
1.97864e-05
1.56997e-05
1.24671e-05
8.93429e-06
1.02853e-05
9.20431e-06
9.3501e-06
1.23452e-05
1.6344e-05
1.63817e-05
1.8456e-05
2.17399e-05
2.64002e-05
2.87105e-05
1.6832e-05
5.46833e-06
1.81832e-06
5.3294e-07
1.20804e-07
0
0
0
0
0
0
0
0
0
0
0
0
0
0
0
0
0
0
0
0
0
0
0
0
0
0
0
0
0
0
0
0
0
0
0
0
0
0
0
0
0
0
0
0
0
0
0
0
0
0
0
0
0
0
1.90112e-08
6.28504e-08
1.71069e-07
3.64832e-07
6.66566e-07
1.11444e-06
1.73611e-06
2.57105e-06
3.56872e-06
4.7717e-06
6.21776e-06
7.94389e-06
1.02329e-05
1.311e-05
1.61549e-05
1.87095e-05
2.05216e-05
2.16773e-05
2.23734e-05
2.28487e-05
2.33065e-05
2.38854e-05
2.45195e-05
2.53076e-05
2.58398e-05
2.52135e-05
2.39395e-05
2.11845e-05
1.67321e-05
1.29712e-05
9.29038e-06
1.16626e-05
1.08527e-05
1.17631e-05
1.65528e-05
1.5563e-05
1.73396e-05
2.04953e-05
2.51008e-05
2.83245e-05
2.2607e-05
9.4442e-06
2.8518e-06
9.02467e-07
2.94188e-07
1.97095e-09
0
0
0
0
0
0
0
0
0
0
0
0
0
0
0
0
0
0
0
0
0
0
0
0
0
0
0
0
0
0
0
0
0
0
0
0
0
0
0
0
0
0
0
0
0
0
0
0
0
0
0
0
0
0
2.17432e-09
2.47033e-08
7.91346e-08
2.00518e-07
4.15496e-07
7.4398e-07
1.21861e-06
1.883e-06
2.7063e-06
3.75131e-06
5.48143e-06
7.67843e-06
1.05017e-05
1.34972e-05
1.65015e-05
1.89147e-05
2.05897e-05
2.16101e-05
2.22391e-05
2.27312e-05
2.33162e-05
2.40686e-05
2.49876e-05
2.60079e-05
2.6581e-05
2.5966e-05
2.47695e-05
2.1881e-05
1.71474e-05
1.33656e-05
1.23214e-05
1.6114e-05
1.62466e-05
1.73108e-05
1.63328e-05
1.72007e-05
2.00725e-05
2.4258e-05
2.64224e-05
2.43892e-05
1.27592e-05
4.49043e-06
1.55106e-06
4.40008e-07
5.18139e-08
0
0
0
0
0
0
0
0
0
0
0
0
0
0
0
0
0
0
0
0
0
0
0
0
0
0
0
0
0
0
0
0
0
0
0
0
0
0
0
0
0
0
0
0
0
0
0
0
0
0
0
0
0
0
0
3.02779e-10
9.32911e-09
3.37795e-08
9.28357e-08
2.00702e-07
3.82656e-07
6.81905e-07
1.16656e-06
1.92028e-06
3.47664e-06
5.53285e-06
7.93883e-06
1.11818e-05
1.46523e-05
1.7787e-05
2.02806e-05
2.184e-05
2.25544e-05
2.28078e-05
2.3011e-05
2.34582e-05
2.42098e-05
2.53458e-05
2.65233e-05
2.72527e-05
2.6496e-05
2.5164e-05
2.20573e-05
1.71536e-05
1.52346e-05
1.94498e-05
2.09014e-05
1.95492e-05
1.80539e-05
1.77265e-05
2.01665e-05
2.2909e-05
2.62247e-05
2.11896e-05
1.37576e-05
6.17777e-06
2.20333e-06
7.02267e-07
2.35703e-07
0
0
0
0
0
0
0
0
0
0
0
0
0
0
0
0
0
0
0
0
0
0
0
0
0
0
0
0
0
0
0
0
0
0
0
0
0
0
0
0
0
0
0
0
0
0
0
0
0
0
0
0
0
0
0
0
0
2.09672e-09
6.15404e-09
1.80584e-08
4.36547e-08
9.76251e-08
2.13641e-07
4.91118e-07
1.31042e-06
3.00699e-06
5.19134e-06
7.71254e-06
1.12051e-05
1.54961e-05
1.90885e-05
2.18571e-05
2.33922e-05
2.37593e-05
2.35142e-05
2.32868e-05
2.34518e-05
2.41512e-05
2.53831e-05
2.6782e-05
2.78361e-05
2.69038e-05
2.53128e-05
2.20221e-05
2.07976e-05
1.983e-05
2.06812e-05
2.04267e-05
2.00289e-05
1.95851e-05
2.03537e-05
2.27772e-05
2.26279e-05
2.30277e-05
1.2728e-05
6.69144e-06
2.71375e-06
1.05205e-06
3.77308e-07
1.05553e-07
0
0
0
0
0
0
0
0
0
0
0
0
0
0
0
0
0
0
0
0
0
0
0
0
0
0
0
0
0
0
0
0
0
0
0
0
0
0
0
0
0
0
0
0
0
0
0
0
0
0
0
0
0
0
0
0
0
0
2.0039e-09
7.15322e-09
2.07468e-08
5.4331e-08
1.04021e-07
2.15416e-07
7.19321e-07
2.23832e-06
4.36372e-06
6.86886e-06
1.04511e-05
1.5289e-05
1.95749e-05
2.29307e-05
2.46799e-05
2.48377e-05
2.4134e-05
2.3475e-05
2.33716e-05
2.39922e-05
2.52822e-05
2.69478e-05
2.86328e-05
2.82618e-05
2.67441e-05
2.53516e-05
2.33687e-05
2.19769e-05
2.12805e-05
2.09332e-05
2.11383e-05
2.14211e-05
2.23539e-05
2.23805e-05
1.80707e-05
1.49007e-05
6.6279e-06
2.84908e-06
1.30083e-06
4.48663e-07
1.72391e-07
0
0
0
0
0
0
0
0
0
0
0
0
0
0
0
0
0
0
0
0
0
0
0
0
0
0
0
0
0
0
0
0
0
0
0
0
0
0
0
0
0
0
0
0
0
0
0
0
0
0
0
0
0
0
0
0
0
0
0
6.0896e-10
2.08757e-09
6.90447e-09
2.07731e-08
5.5185e-08
1.38028e-07
3.88993e-07
1.47818e-06
3.40042e-06
5.81938e-06
9.38803e-06
1.44119e-05
1.92707e-05
2.32583e-05
2.53999e-05
2.55389e-05
2.45227e-05
2.35067e-05
2.31735e-05
2.36729e-05
2.49075e-05
2.67195e-05
2.91824e-05
3.06364e-05
3.03479e-05
2.64921e-05
2.28745e-05
2.13894e-05
2.07209e-05
2.04362e-05
2.12823e-05
2.18014e-05
2.26095e-05
1.87802e-05
1.18702e-05
7.80548e-06
3.14566e-06
1.39369e-06
5.25378e-07
2.1111e-07
1.18255e-09
0
0
0
0
0
0
0
0
0
0
0
0
0
0
0
0
0
0
0
0
0
0
0
0
0
0
0
0
0
0
0
0
0
0
0
0
0
0
0
0
0
0
0
0
0
0
0
0
0
0
0
0
0
0
0
0
0
0
0
0
6.10007e-10
1.86591e-09
6.10668e-09
2.27609e-08
8.06415e-08
2.31908e-07
8.6025e-07
2.47991e-06
4.68504e-06
8.10001e-06
1.30283e-05
1.81976e-05
2.26829e-05
2.53073e-05
2.56481e-05
2.45352e-05
2.32935e-05
2.27587e-05
2.30844e-05
2.40236e-05
2.54886e-05
2.73865e-05
2.86779e-05
2.62527e-05
2.27194e-05
2.0687e-05
1.97148e-05
1.9724e-05
1.91955e-05
2.08596e-05
1.9913e-05
1.98269e-05
1.31586e-05
6.85059e-06
3.68719e-06
1.60487e-06
5.87926e-07
2.6887e-07
3.15679e-09
0
0
0
0
0
0
0
0
0
0
0
0
0
0
0
0
0
0
0
0
0
0
0
0
0
0
0
0
0
0
0
0
0
0
0
0
0
0
0
0
0
0
0
0
0
0
0
0
0
0
0
0
0
0
0
0
0
0
0
0
0
0
6.45891e-10
1.77502e-09
7.49992e-09
3.94555e-08
1.45477e-07
4.42386e-07
1.64669e-06
3.67172e-06
6.6861e-06
1.12497e-05
1.64446e-05
2.12036e-05
2.43138e-05
2.50763e-05
2.41109e-05
2.28031e-05
2.20954e-05
2.20712e-05
2.25021e-05
2.32301e-05
2.39895e-05
2.367e-05
2.18561e-05
1.97027e-05
1.82175e-05
1.78961e-05
1.94342e-05
1.72761e-05
1.63407e-05
1.5638e-05
1.36693e-05
7.63183e-06
3.45717e-06
1.73102e-06
6.93347e-07
3.29409e-07
5.00511e-08
0
0
0
0
0
0
0
0
0
0
0
0
0
0
0
0
0
0
0
0
0
0
0
0
0
0
0
0
0
0
0
0
0
0
0
0
0
0
0
0
0
0
0
0
0
0
0
0
0
0
0
0
0
0
0
0
0
0
0
0
0
0
0
0
0
2.45419e-09
1.49325e-08
7.40797e-08
2.56649e-07
9.19033e-07
2.62276e-06
5.08464e-06
9.11559e-06
1.41077e-05
1.88844e-05
2.24016e-05
2.3728e-05
2.3186e-05
2.20079e-05