/*--------------------------------*- C++ -*----------------------------------*\
  =========                 |
  \\      /  F ield         | OpenFOAM: The Open Source CFD Toolbox
   \\    /   O peration     | Website:  https://openfoam.org
    \\  /    A nd           | Version:  6
     \\/     M anipulation  |
\*---------------------------------------------------------------------------*/
FoamFile
{
    version     2.0;
    format      ascii;
    class       volScalarField;
    location    "0.005";
    object      k;
}
// * * * * * * * * * * * * * * * * * * * * * * * * * * * * * * * * * * * * * //

dimensions      [0 2 -2 0 0 0 0];

internalField   nonuniform List<scalar> 
8000
(
2.15601
2.13214
2.11611
2.10042
2.08172
2.06528
2.06048
2.06353
2.07532
2.10802
2.09836
2.11446
2.19294
2.23239
2.2681
2.3072
2.50143
2.94225
3.16472
3.18716
3.11689
3.13593
4.6968
2.92045
2.3816
2.39758
2.96675
3.9148
5.15445
6.58889
8.11176
9.70083
11.3485
13.2359
15.3744
17.3429
19.1657
21.0519
22.9159
24.6875
26.256
27.8198
28.4399
29.5235
26.7995
12.4659
6.3551
4.05437
2.02169
0.560845
0.165239
0.114824
0.106147
0.0976423
0.0918597
0.0889541
0.0870008
0.0854817
0.0843432
0.0834756
0.0828424
0.0823761
0.0820151
0.0817037
0.0814028
0.0811056
0.0808258
0.0806067
0.0804738
0.0804547
0.0805539
0.0807513
0.0810132
0.0813062
0.0815945
0.0818568
0.0820816
0.0822628
0.0824063
0.0825166
0.0826018
0.082679
0.0827419
0.0828041
0.0828625
0.0829255
0.0829991
0.0830856
0.0831795
0.0832839
0.0834084
0.083551
0.0837119
0.0838799
0.0840469
0.0842014
0.0843392
0.0844583
0.0845606
0.0845054
2.14867
2.13412
2.12143
2.10828
2.0925
2.07867
2.07637
2.08557
2.10909
2.16666
2.17445
2.21368
2.31317
2.39863
2.43364
2.45254
2.66837
3.14956
3.47062
3.4172
3.3449
3.3978
3.68409
2.82625
2.48067
2.43461
2.94604
3.86402
5.11178
6.5359
8.05401
9.66968
11.3841
13.3861
15.7118
17.8487
19.7398
21.7688
23.7256
25.6756
27.394
28.921
29.3815
30.0891
27.2251
12.959
6.67056
4.66831
2.28161
0.577868
0.167311
0.112461
0.104668
0.0966136
0.0910022
0.0882643
0.0864427
0.0850294
0.083977
0.0831811
0.0826049
0.0821831
0.0818558
0.0815692
0.0812861
0.0809993
0.0807223
0.0804969
0.0803498
0.0803103
0.0803855
0.0805589
0.0807988
0.0810731
0.0813458
0.0815957
0.0818115
0.0819869
0.0821266
0.082235
0.0823196
0.0823954
0.0824577
0.0825192
0.0825777
0.0826414
0.0827162
0.0828049
0.0829026
0.0830118
0.08314
0.0832841
0.0834428
0.0836044
0.0837606
0.083901
0.0840229
0.0841265
0.0842155
0.0841455
2.15097
2.14019
2.12947
2.12109
2.11367
2.10816
2.11555
2.14151
2.20113
2.36179
2.39953
2.50088
2.87078
2.83748
2.6386
2.73544
3.12371
3.99781
4.50223
4.20322
4.22275
3.97747
4.25828
3.41394
2.83817
2.57781
2.77044
3.72284
5.0471
6.49778
7.9611
9.64049
11.5086
13.7693
16.4956
19.0715
21.0851
23.3001
25.5978
27.8681
29.6816
31.4126
31.5411
31.4442
28.0801
13.7464
6.09531
4.28377
1.79529
0.492916
0.154033
0.111236
0.102471
0.0943419
0.0891042
0.0867485
0.0852422
0.0840755
0.0832142
0.0825743
0.0821214
0.0817952
0.0815385
0.0813003
0.081047
0.0807705
0.0804846
0.0802291
0.0800338
0.0799326
0.0799387
0.0800439
0.0802214
0.0804408
0.0806675
0.0808804
0.0810689
0.0812275
0.0813581
0.0814652
0.0815552
0.0816376
0.0817115
0.0817857
0.081859
0.0819374
0.0820248
0.0821235
0.0822309
0.0823478
0.082478
0.0826175
0.0827626
0.0829023
0.0830284
0.0831338
0.0832183
0.083288
0.0833534
0.0832964
2.15631
2.15421
2.14941
2.15205
2.15718
2.1734
2.20714
2.26009
2.39571
2.62356
2.81645
2.90813
3.97022
3.09363
3.09804
3.28939
3.89739
5.85261
5.72371
5.74778
6.26674
4.9813
4.97396
3.82703
3.1728
2.88986
3.1296
3.84006
4.88001
6.4738
7.77422
9.68429
11.8059
14.4574
17.7518
21.1958
23.2371
25.7645
28.3407
31.2114
33.1835
35.039
34.8297
33.6214
29.6041
14.5099
5.57088
2.64953
0.932914
0.2877
0.13411
0.112509
0.102036
0.0931791
0.0880484
0.0858711
0.0845096
0.0834491
0.0826709
0.0821006
0.0817022
0.0814162
0.081187
0.080966
0.0807223
0.0804463
0.0801519
0.0798765
0.0796511
0.0795111
0.079474
0.0795353
0.0796711
0.0798511
0.0800413
0.0802204
0.080378
0.0805097
0.0806171
0.0807053
0.0807806
0.0808504
0.0809169
0.0809864
0.081059
0.0811385
0.0812267
0.0813256
0.0814337
0.0815505
0.0816763
0.0818062
0.0819343
0.0820505
0.0821465
0.0822179
0.0822668
0.0823043
0.0823506
0.082323
2.17002
2.18379
2.19541
2.22626
2.25828
2.32899
2.41882
2.50806
2.65301
2.90666
2.91332
3.20015
3.49753
3.63474
3.70764
4.04687
5.27299
7.02139
9.13838
8.76421
8.19749
6.38649
5.61871
4.13572
3.59875
3.26985
3.36777
3.55193
4.66549
5.98091
7.67795
10.0351
12.5386
15.5407
19.224
23.7383
25.956
29.029
32.1469
35.5738
37.7202
39.7421
39.245
36.5578
31.706
15.525
5.08435
1.63227
0.496195
0.196118
0.134373
0.116363
0.102318
0.0926486
0.0874739
0.0853373
0.0840124
0.0829798
0.0822295
0.0816858
0.0813064
0.0810321
0.080809
0.0805917
0.080352
0.080079
0.0797858
0.0795058
0.0792698
0.0791133
0.0790561
0.0790961
0.0792115
0.0793718
0.079543
0.0797032
0.0798417
0.0799545
0.0800439
0.0801155
0.0801756
0.0802314
0.0802863
0.0803455
0.0804098
0.0804814
0.0805614
0.0806509
0.0807491
0.0808548
0.0809658
0.0810767
0.0811802
0.0812667
0.0813286
0.0813631
0.081375
0.0813797
0.0814066
0.0814057
2.20895
2.27546
2.33463
2.41772
2.53974
2.67251
2.83379
3.01201
3.21593
3.4687
3.66729
3.91184
4.22813
4.32742
4.45538
5.07127
7.33543
9.5743
15.9048
13.3705
12.6478
7.15929
5.77325
4.50231
3.90199
3.55146
3.53299
3.65425
4.91867
5.80344
7.72232
10.2161
13.9045
16.9233
21.4376
26.2403
29.485
33.1029
36.742
40.8252
43.1734
45.2817
43.6381
39.8409
34.3085
16.9527
5.133
1.2808
0.348708
0.177538
0.150373
0.122121
0.102836
0.0923207
0.0870543
0.0849168
0.0835957
0.0825689
0.0818312
0.0813016
0.0809312
0.0806612
0.0804396
0.0802245
0.07999
0.0797235
0.0794369
0.0791597
0.078922
0.0787591
0.0786925
0.0787222
0.0788281
0.0789797
0.0791429
0.0792952
0.0794251
0.0795292
0.0796099
0.0796733
0.079726
0.0797746
0.079823
0.0798756
0.0799331
0.079997
0.0800677
0.080146
0.0802311
0.0803213
0.0804134
0.0805012
0.080577
0.0806318
0.0806588
0.0806569
0.080633
0.0806061
0.0806132
0.0806284
2.29883
2.48242
2.64474
2.84503
3.0763
3.34582
3.56091
3.8448
4.08045
4.33161
4.43637
4.71019
4.89311
5.16124
5.4644
6.55604
8.40016
16.0052
23.6338
18.4451
13.0631
8.05003
5.55996
4.64835
3.7707
3.5452
3.45686
3.66098
4.37127
5.71833
7.75799
10.7531
14.494
18.9054
24.4962
29.7831
33.7662
38.006
42.2456
46.7156
49.5066
51.281
48.7235
43.6452
38.1053
18.7492
5.85837
1.36224
0.332305
0.192647
0.176557
0.127297
0.103201
0.0920439
0.0867012
0.0845591
0.0832383
0.0822141
0.081486
0.0809674
0.0806038
0.0803373
0.0801176
0.0799059
0.0796774
0.0794185
0.0791395
0.0788666
0.0786296
0.0784638
0.0783916
0.0784152
0.0785157
0.0786627
0.0788221
0.078971
0.0790971
0.0791975
0.0792749
0.0793354
0.0793856
0.0794319
0.079478
0.0795276
0.0795813
0.0796399
0.0797036
0.0797729
0.0798467
0.0799229
0.0799977
0.0800647
0.080116
0.0801431
0.0801401
0.0801071
0.080053
0.0799991
0.0799881
0.0800091
2.4917
2.88486
3.19881
3.54033
3.92028
4.32518
4.66269
5.17787
5.25867
5.51344
5.75583
5.95079
5.92424
6.23291
6.48562
7.01787
9.03138
14.5136
34.2095
21.1657
14.0732
9.57209
5.47435
4.66816
4.01724
3.4937
3.35511
3.57294
4.38067
6.0421
8.22082
12.0163
16.2881
21.5415
28.2326
34.4325
38.9384
43.8183
48.2127
53.553
57.2964
57.9602
54.1286
47.7537
40.4539
20.4755
7.0686
1.76424
0.38799
0.221435
0.218839
0.129014
0.102969
0.091788
0.0864168
0.0842686
0.0829503
0.0819293
0.0812097
0.0807004
0.0803429
0.0800801
0.0798632
0.0796553
0.0794326
0.0791804
0.0789077
0.0786384
0.078402
0.0782338
0.0781573
0.078176
0.0782722
0.0784154
0.0785718
0.0787181
0.0788417
0.0789399
0.0790154
0.0790746
0.0791239
0.0791695
0.0792148
0.079263
0.0793143
0.0793695
0.0794283
0.0794909
0.0795562
0.0796217
0.079683
0.0797338
0.0797659
0.0797715
0.0797452
0.0796881
0.0796106
0.0795357
0.0795093
0.0795297
2.87342
3.54884
4.04225
4.55109
5.05554
5.56808
6.03104
6.64989
6.54563
6.828
6.65675
6.69947
7.06525
6.73312
6.57382
7.07632
8.50669
15.8951
26.5264
20.1085
12.3258
7.1996
5.74376
4.82763
3.82192
3.37433
3.28381
3.56355
4.42072
6.72902
8.89052
13.7508
18.9203
24.9202
32.8851
40.3097
45.1802
50.8016
55.0284
60.6467
65.1135
64.5865
59.8115
52.1273
47.0589
22.3246
7.71471
1.77035
0.396159
0.240863
0.219673
0.128103
0.102607
0.0916516
0.0862225
0.084051
0.0827332
0.0817153
0.0810028
0.0805013
0.0801492
0.0798902
0.0796763
0.0794723
0.0792545
0.0790073
0.0787391
0.078472
0.0782355
0.078065
0.0779845
0.0779988
0.0780908
0.0782302
0.0783834
0.0785267
0.0786476
0.0787434
0.078817
0.0788749
0.0789233
0.0789682
0.0790126
0.0790594
0.0791088
0.0791613
0.0792164
0.0792742
0.0793332
0.0793908
0.0794421
0.0794807
0.0794985
0.0794882
0.0794447
0.07937
0.0792751
0.0791844
0.0791458
0.0791626
3.32426
4.36839
5.00998
5.61822
6.28472
6.83608
7.35865
7.62734
8.11885
7.58906
7.56234
8.10944
7.78383
7.1694
6.58882
7.28106
7.64747
13.3269
37.015
22.1306
12.1662
8.54471
5.50278
4.43929
3.66688
3.3007
3.32771
3.692
4.76503
7.76161
10.3965
15.4448
23.3116
29.0354
38.0055
46.7927
52.2686
59.5994
62.555
67.7324
71.7661
71.8834
66.4513
57.0112
47.0635
23.6016
11.1349
2.28171
0.448624
0.250693
0.331992
0.128759
0.102676
0.091781
0.0861587
0.0839097
0.0825783
0.0815612
0.0808544
0.0803593
0.0800118
0.0797565
0.0795457
0.079345
0.079131
0.0788874
0.0786219
0.0783559
0.0781187
0.0779458
0.0778619
0.0778722
0.0779603
0.0780958
0.0782455
0.0783856
0.0785034
0.0785966
0.078668
0.0787241
0.0787712
0.0788148
0.078858
0.0789032
0.0789507
0.0790008
0.079053
0.0791071
0.0791615
0.0792131
0.079257
0.0792866
0.0792941
0.0792721
0.0792163
0.0791288
0.0790213
0.0789191
0.0788712
0.0788835
3.57718
4.84964
5.62405
6.32393
7.16878
7.84276
8.44083
8.25434
8.23634
7.86862
8.1338
7.4793
7.50003
7.10803
6.61973
6.45213
6.82806
9.19987
23.9124
17.126
9.89637
6.85229
5.28043
4.13988
3.44774
3.31667
3.49688
4.02384
5.46396
8.47079
12.2622
18.0729
25.8131
33.9967
43.1847
52.5782
58.5229
69.5698
70.6068
75.5138
79.2039
79.9482
74.5421
62.26
50.6499
23.5161
15.8236
3.69192
0.550323
0.259979
0.194731
0.127126
0.10329
0.0923455
0.0862855
0.0838521
0.0824739
0.0814525
0.0807499
0.08026
0.0799166
0.0796645
0.0794565
0.0792587
0.0790475
0.0788063
0.0785424
0.0782767
0.0780386
0.0778635
0.0777766
0.0777835
0.077868
0.078
0.0781462
0.0782831
0.0783978
0.0784883
0.0785574
0.0786116
0.0786571
0.0786992
0.0787408
0.0787844
0.07883
0.078878
0.0789278
0.078979
0.0790298
0.0790771
0.0791156
0.0791386
0.0791385
0.0791082
0.0790436
0.0789471
0.0788307
0.0787202
0.0786653
0.0786737
4.10203
5.77319
6.61221
7.25547
8.48563
8.53389
8.5762
8.44273
7.83401
7.45194
6.97949
6.60014
6.46888
5.89811
5.70607
5.66165
6.28969
7.94977
16.6414
15.5386
8.34327
6.20823
5.16429
4.29893
3.60881
3.51112
3.94384
5.25808
6.38115
10.1151
14.6729
21.6579
30.3531
39.4984
48.7061
58.6602
65
76.3096
79.1462
84.41
87.1867
86.3029
83.9169
67.8951
54.0288
24.2878
17.3074
5.53573
0.536465
0.253921
0.22648
0.12758
0.104544
0.0934999
0.0866812
0.0839132
0.082413
0.0813765
0.0806764
0.0801908
0.0798507
0.0796015
0.079396
0.0792005
0.0789913
0.0787517
0.0784887
0.0782229
0.0779838
0.0778069
0.0777176
0.0777216
0.077803
0.077932
0.0780751
0.0782091
0.0783211
0.0784091
0.078476
0.0785283
0.0785722
0.0786127
0.0786528
0.0786948
0.0787387
0.0787849
0.0788327
0.0788818
0.07893
0.078974
0.0790085
0.0790269
0.0790213
0.0789852
0.0789144
0.0788116
0.0786891
0.0785728
0.078513
0.0785182
6.24104
8.90849
9.3048
9.0767
8.98986
8.57624
7.9599
7.38528
7.05459
6.26562
6.14658
5.8095
5.44117
5.39407
4.91039
4.88583
5.8624
7.24536
15.47
10.8792
7.30092
5.75731
4.97947
4.17369
3.84574
3.85443
4.23679
5.98954
7.42153
12.0205
17.8484
25.7454
35.437
45.6863
55.7298
65.3464
72.1742
84.4113
87.8245
94.2277
95.975
93.2547
87.2205
73.3381
57.2948
24.9839
12.5114
3.44665
0.469757
0.229731
0.181682
0.125969
0.106082
0.0951311
0.0873914
0.0841104
0.0823934
0.0813232
0.0806238
0.0801417
0.0798045
0.0795578
0.0793544
0.0791607
0.0789531
0.0787145
0.0784519
0.0781858
0.0779459
0.0777676
0.0776763
0.0776781
0.0777572
0.0778836
0.0780242
0.0781557
0.0782654
0.0783513
0.0784163
0.0784669
0.0785094
0.0785485
0.0785873
0.0786278
0.0786703
0.078715
0.0787613
0.0788088
0.0788551
0.0788968
0.0789285
0.0789435
0.0789341
0.0788939
0.0788189
0.0787119
0.0785853
0.0784651
0.0784017
0.0784046
9.26813
8.78332
8.42792
8.50752
7.71449
6.66999
6.50482
6.43961
6.01095
5.88192
5.53178
5.18585
4.93528
4.64773
4.32934
4.37971
5.14114
6.05427
11.6342
8.39217
6.08001
5.36256
4.85886
4.33659
4.08773
4.2409
5.0673
6.09592
8.92002
14.4433
21.669
30.6053
41.0781
53.4014
64.2261
72.5686
80.9747
93.2697
96.9664
105.224
106.519
101.151
93.4821
79.6539
59.8716
25.3046
8.85529
1.59696
0.394755
0.220125
0.172077
0.126117
0.107678
0.096713
0.0883494
0.0843147
0.0823946
0.0812837
0.0805844
0.0801055
0.0797708
0.0795263
0.0793248
0.0791326
0.0789261
0.0786882
0.0784258
0.0781596
0.077919
0.0777396
0.0776469
0.077647
0.0777243
0.0778488
0.0779875
0.078117
0.078225
0.0783091
0.0783726
0.0784219
0.0784632
0.0785012
0.0785389
0.0785782
0.0786196
0.0786632
0.0787084
0.0787547
0.0787996
0.0788398
0.0788694
0.078882
0.0788701
0.0788271
0.0787493
0.0786396
0.0785102
0.0783874
0.0783216
0.0783229
8.92943
6.2314
6.53102
6.64786
6.7601
5.91882
6.0803
5.59364
5.17174
5.38518
4.95987
4.71468
4.43033
4.15749
3.81208
3.97914
4.50281
5.82141
7.1364
6.93453
5.63086
5.20506
4.82599
4.54084
4.37539
4.80373
5.47939
7.2103
10.8332
17.3546
26.4346
35.7599
47.082
63.3687
74.7055
80.3569
91.3701
102.386
106.399
113.668
118.787
107.403
100.556
92.74
61.6464
23.4783
7.36159
1.29363
0.366421
0.218045
0.167166
0.126939
0.10911
0.0976219
0.0891904
0.0845133
0.0823599
0.0812495
0.0805536
0.0800778
0.0797454
0.0795028
0.079303
0.0791122
0.0789065
0.0786693
0.0784068
0.0781405
0.0778996
0.0777192
0.0776256
0.0776246
0.0777007
0.0778237
0.0779609
0.0780891
0.0781957
0.0782786
0.0783409
0.0783892
0.0784295
0.0784667
0.0785035
0.078542
0.0785825
0.0786252
0.0786697
0.0787151
0.0787592
0.0787981
0.0788264
0.0788374
0.0788236
0.0787788
0.0786992
0.0785877
0.0784566
0.0783321
0.0782647
0.0782648
6.61036
6.15215
6.94138
6.39512
6.3501
5.90427
5.94799
5.52613
5.22734
5.19339
4.47843
4.4022
4.24082
3.99041
3.7812
3.79325
4.14647
5.15858
6.07931
6.10503
5.32838
4.97619
4.80801
4.70655
4.79822
5.15683
6.25281
8.66396
13.6147
21.3818
33.4539
42.6359
56.0391
72.4961
84.8585
91.0033
105.933
112.273
117.428
122.551
124.826
116.442
108.323
89.8642
62.2046
19.6522
5.64831
0.947745
0.338964
0.218148
0.163944
0.127434
0.109679
0.0974918
0.0892778
0.0844923
0.0823122
0.0812159
0.0805258
0.0800537
0.0797237
0.079483
0.0792849
0.0790953
0.0788904
0.0786537
0.0783912
0.0781248
0.0778834
0.0777023
0.0776078
0.0776058
0.0776808
0.0778026
0.0779385
0.0780654
0.0781709
0.0782526
0.0783138
0.0783612
0.0784007
0.0784371
0.0784732
0.0785109
0.0785506
0.0785926
0.0786365
0.0786812
0.0787245
0.0787625
0.0787896
0.0787993
0.0787841
0.0787377
0.0786567
0.0785439
0.0784115
0.0782857
0.078217
0.0782162
3.68661
6.14497
7.06939
6.95319
6.23606
6.25898
6.2045
5.86979
5.77442
5.48795
5.13681
4.83813
4.87755
4.41944
4.08296
3.87029
4.02297
4.76247
5.47418
5.54796
5.0802
4.78864
4.84721
4.87118
4.95028
5.74501
7.57599
10.8765
18.0213
27.4938
40.1108
52.5565
67.6481
84.0293
96.2158
103.541
124.208
123.072
129.087
131.867
133.83
122.494
111.966
95.9325
61.4863
17.1736
4.55999
0.781747
0.307883
0.207611
0.156819
0.124223
0.106699
0.0953958
0.0884351
0.0840265
0.0822202
0.0811824
0.0805032
0.0800351
0.0797076
0.0794688
0.0792722
0.0790835
0.0788795
0.0786429
0.0783806
0.0781139
0.0778722
0.0776907
0.0775956
0.0775928
0.0776671
0.077788
0.0779229
0.078049
0.0781535
0.0782344
0.0782948
0.0783415
0.0783804
0.0784162
0.0784517
0.0784888
0.078528
0.0785694
0.0786128
0.078657
0.0786998
0.0787371
0.0787634
0.0787721
0.078756
0.0787086
0.0786268
0.0785131
0.0783799
0.0782533
0.0781837
0.0781823
1.35857
5.49029
6.62432
6.92578
6.55414
6.90191
6.58933
6.46457
6.52554
6.64889
6.28253
6.51351
6.20421
6.20599
5.25188
4.67155
4.65605
4.7555
5.44482
5.26701
4.94544
5.02234
4.80317
4.87183
5.27808
6.64244
9.39324
14.5156
23.2887
35.1953
50.0039
63.8765
79.8657
92.9353
109.881
115.02
128.578
133.175
138.376
141.599
140.384
130.197
116.861
101.688
58.9966
13.4904
2.94628
0.588464
0.265507
0.188688
0.146618
0.118333
0.102154
0.0923158
0.0864589
0.0836062
0.0821374
0.0811537
0.0804853
0.0800213
0.0796962
0.0794591
0.0792637
0.0790758
0.0788724
0.0786361
0.0783738
0.0781071
0.0778653
0.0776835
0.0775881
0.077585
0.0776589
0.0777794
0.0779137
0.0780392
0.0781433
0.0782237
0.0782836
0.0783299
0.0783684
0.0784038
0.078439
0.0784757
0.0785145
0.0785557
0.0785987
0.0786427
0.0786851
0.078722
0.0787478
0.078756
0.0787392
0.0786913
0.078609
0.0784949
0.0783613
0.0782343
0.0781642
0.0781624
0.713782
3.9314
5.41884
6.1182
6.37895
6.78325
7.02623
7.24751
7.67981
8.31935
8.96385
10.1338
11.3958
11.6902
8.96222
7.2972
6.16707
5.51456
5.37955
5.41689
5.02698
4.94766
4.92377
5.11585
5.92486
8.33892
12.7666
20.9466
31.5197
44.766
61.9198
75.7978
91.2162
105.047
118.474
125.391
136.923
141.339
149.54
149.303
147.521
141.731
121.976
104.721
55.0968
11.268
2.1389
0.480324
0.228071
0.169848
0.136999
0.112912
0.0987658
0.0904127
0.085611
0.0834166
0.0820794
0.0811293
0.0804708
0.0800109
0.0796883
0.0794527
0.0792584
0.0790712
0.0788683
0.0786322
0.07837
0.0781034
0.0778614
0.0776795
0.077584
0.0775808
0.0776544
0.0777747
0.0779087
0.0780339
0.0781377
0.0782178
0.0782774
0.0783234
0.0783617
0.0783969
0.0784319
0.0784683
0.0785069
0.0785479
0.0785908
0.0786345
0.0786767
0.0787134
0.0787389
0.0787467
0.0787296
0.0786814
0.0785989
0.0784846
0.0783507
0.0782235
0.0781532
0.0781511
0.639758
2.27688
3.77182
4.86694
5.7954
6.64021
7.34193
7.97965
9.01376
10.7642
13.4691
17.2295
20.7459
21.2141
17.769
14.0549
10.1915
7.88474
6.68554
6.3618
5.77671
5.80605
5.55322
5.86535
7.24444
11.1073
18.2754
28.3452
42.0616
56.5151
72.7794
87.0276
102.64
114.323
127.359
135.451
145.535
150.518
156.312
154.825
152.513
156.494
124.809
104.37
49.987
9.7391
1.74965
0.416647
0.202904
0.157635
0.130561
0.109601
0.0969244
0.0895455
0.0853357
0.0833197
0.0820324
0.0811072
0.0804579
0.0800022
0.0796821
0.0794482
0.0792549
0.0790683
0.0788658
0.0786301
0.0783679
0.0781014
0.0778594
0.0776775
0.0775818
0.0775786
0.0776522
0.0777723
0.0779062
0.0780313
0.0781349
0.0782148
0.0782742
0.07832
0.0783582
0.0783932
0.0784281
0.0784644
0.0785029
0.0785437
0.0785865
0.0786301
0.0786722
0.0787087
0.078734
0.0787416
0.0787243
0.078676
0.0785933
0.0784789
0.0783449
0.0782176
0.0781473
0.078145
0.65154
1.26083
2.2457
3.39449
4.74614
6.0516
7.12466
8.31001
10.3586
13.9431
19.1798
25.6183
31.0585
33.0496
30.561
25.253
18.5876
14.1353
10.1693
8.30826
7.8501
7.28904
7.14131
7.8354
10.4326
16.8364
28.4059
38.8432
52.8546
69.3315
85.5721
98.3499
115.279
124.625
137.527
143.958
153.631
153.026
162.835
159.121
157.974
151.905
125.122
100.669
46.7422
8.15359
1.47953
0.36864
0.191078
0.153836
0.128148
0.108541
0.0961935
0.0891717
0.0852223
0.0832567
0.0819917
0.0810864
0.080446
0.0799945
0.0796771
0.0794447
0.0792524
0.0790665
0.0788645
0.078629
0.078367
0.0781005
0.0778585
0.0776766
0.077581
0.0775777
0.0776513
0.0777714
0.0779052
0.0780303
0.0781338
0.0782135
0.0782729
0.0783186
0.0783566
0.0783916
0.0784263
0.0784626
0.078501
0.0785417
0.0785844
0.078628
0.0786699
0.0787063
0.0787315
0.0787389
0.0787216
0.0786731
0.0785904
0.078476
0.0783419
0.0782146
0.0781443
0.0781419
0.640703
0.88277
1.34726
2.11543
3.37754
4.8648
6.29005
8.26144
11.6976
17.0515
23.6774
30.6316
36.4802
40.34
41.1478
37.2654
30.1244
23.1662
17.1672
14.6836
13.6381
11.312
11.1933
12.2459
17.5078
26.0554
39.2514
51.0957
64.9883
80.4243
99.0842
109.161
127.33
134.566
148.102
150.985
162.481
165.432
168.058
163.589
162.437
152.651
126.518
92.9804
36.149
6.39833
1.22457
0.32821
0.187993
0.156127
0.129262
0.109142
0.0962329
0.089
0.0851337
0.083209
0.0819603
0.081067
0.0804344
0.0799872
0.0796725
0.0794417
0.0792505
0.0790652
0.0788637
0.0786286
0.0783667
0.0781003
0.0778582
0.0776763
0.0775807
0.0775775
0.0776512
0.0777713
0.0779051
0.0780301
0.0781336
0.0782132
0.0782725
0.0783181
0.0783561
0.078391
0.0784257
0.0784618
0.0785002
0.0785409
0.0785836
0.0786271
0.0786689
0.0787052
0.0787303
0.0787377
0.0787202
0.0786718
0.078589
0.0784746
0.0783405
0.0782133
0.078143
0.0781406
0.604683
0.772333
0.990529
1.3838
2.22268
3.53952
5.24999
8.01169
12.4836
18.2315
24.4073
30.442
36.1011
41.4276
45.6226
45.6933
41.1443
34.338
27.6463
24.192
21.2523
18.8002
18.1194
19.6254
25.299
38.3836
55.1539
64.4762
77.5754
91.244
107.087
122.108
136.403
141.886
152.837
156.219
163.416
169.092
171.117
167.669
166.294
155.417
126.618
83.6946
27.554
4.95174
1.00079
0.293567
0.186747
0.160922
0.132295
0.110461
0.0964018
0.0888959
0.0850628
0.0831785
0.0819516
0.0810501
0.0804229
0.0799799
0.0796681
0.0794389
0.0792488
0.0790643
0.0788633
0.0786285
0.0783667
0.0781004
0.0778584
0.0776765
0.0775809
0.0775778
0.0776515
0.0777716
0.0779055
0.0780304
0.0781339
0.0782135
0.0782727
0.0783182
0.0783561
0.078391
0.0784256
0.0784618
0.0785001
0.0785408
0.0785834
0.0786268
0.0786686
0.0787048
0.0787299
0.0787372
0.0787197
0.0786712
0.0785884
0.078474
0.07834
0.0782128
0.0781427
0.0781401
0.564271
0.714396
0.861291
1.07899
1.58119
2.62392
4.44006
7.51584
11.9337
16.7761
21.705
26.8389
32.4102
38.5965
45.0499
49.1769
48.8681
44.7235
39.4695
35.5774
32.4911
29.294
28.6837
30.7011
37.0535
51.9187
67.9659
77.9359
90.1191
102.059
115.059
146.103
142.29
149.022
156.819
160.492
171.206
172.442
173.865
170.727
168.543
158.789
123.93
72.5396
20.4838
3.7903
0.810535
0.263025
0.183887
0.162042
0.133231
0.110061
0.0960878
0.0887984
0.0850944
0.0832414
0.0819684
0.0810347
0.080411
0.0799724
0.0796635
0.0794362
0.0792472
0.0790634
0.0788629
0.0786284
0.0783669
0.0781006
0.0778586
0.0776767
0.0775812
0.0775782
0.077652
0.0777722
0.0779061
0.0780311
0.0781344
0.078214
0.0782732
0.0783187
0.0783565
0.0783913
0.0784259
0.078462
0.0785003
0.078541
0.0785836
0.078627
0.0786687
0.0787048
0.0787298
0.0787371
0.0787196
0.0786711
0.0785883
0.0784739
0.0783399
0.0782128
0.0781428
0.0781402
0.533942
0.666402
0.80117
0.973553
1.34883
2.23775
3.98602
6.77094
10.2904
13.9407
17.8114
22.3389
27.7975
34.3588
41.8756
48.8714
52.6482
52.4685
49.8673
46.9054
43.8875
40.8589
40.8532
43.6461
51.1126
67.2117
81.1463
89.7556
101.203
111.114
122.596
135.479
145.964
154.571
160.214
164.175
170.992
174.476
176.153
173.042
170.396
158.353
118.19
59.012
15.4261
2.9145
0.655796
0.236318
0.180522
0.159997
0.13061
0.107714
0.0954008
0.0887048
0.0851857
0.0832816
0.0819067
0.0810098
0.080398
0.0799646
0.0796588
0.0794333
0.0792455
0.0790625
0.0788626
0.0786285
0.0783671
0.0781009
0.0778589
0.0776771
0.0775816
0.0775787
0.0776526
0.0777729
0.0779068
0.0780318
0.0781352
0.0782147
0.0782738
0.0783193
0.078357
0.0783918
0.0784264
0.0784625
0.0785008
0.0785414
0.078584
0.0786273
0.078669
0.0787051
0.07873
0.0787373
0.0787197
0.0786712
0.0785885
0.0784741
0.0783401
0.0782131
0.0781431
0.0781404
0.523
0.647586
0.789616
0.97597
1.35343
2.21014
3.7771
5.95721
8.48038
11.16
14.2964
18.3329
23.538
30.0924
37.9601
46.4097
53.2292
56.7804
57.4441
56.6591
54.7084
52.597
55.4707
57.3447
66.6389
79.6654
91.9617
99.8579
109.473
118.003
128.111
138.569
149.24
158.457
162.542
166.795
172.457
176.044
177.643
174.587
171.909
156.507
108.979
51.4974
11.6149
2.2378
0.530345
0.214824
0.177942
0.157378
0.126585
0.105659
0.0947091
0.0884945
0.0850595
0.0830978
0.0818338
0.0809835
0.0803845
0.0799567
0.0796539
0.0794305
0.0792438
0.0790618
0.0788623
0.0786287
0.0783674
0.0781014
0.0778593
0.0776776
0.0775822
0.0775793
0.0776533
0.0777737
0.0779077
0.0780327
0.078136
0.0782156
0.0782746
0.07832
0.0783577
0.0783924
0.078427
0.078463
0.0785013
0.078542
0.0785845
0.0786278
0.0786694
0.0787055
0.0787304
0.0787376
0.0787201
0.0786716
0.0785888
0.0784745
0.0783405
0.0782135
0.0781436
0.0781409
0.543938
0.693078
0.862862
1.09002
1.512
2.34276
3.62918
5.2027
6.98104
9.01003
11.6206
15.1889
20.0036
26.2908
34.1015
43.0436
51.704
58.1152
61.9495
63.3885
63.2922
62.4938
63.979
69.1503
80.5103
91.076
101.852
106.085
114.152
122.739
132.122
141.267
151.25
160.077
164.527
168.908
173.672
176.969
178.078
175.192
174.585
153.417
98.3731
41.4249
9.04124
1.73174
0.429782
0.198743
0.175682
0.153445
0.123041
0.104128
0.0940596
0.088198
0.0848546
0.082957
0.0817785
0.0809597
0.0803716
0.0799491
0.0796495
0.079428
0.0792427
0.0790615
0.0788626
0.0786293
0.0783682
0.0781022
0.0778602
0.0776784
0.077583
0.0775803
0.0776544
0.0777748
0.0779089
0.0780338
0.0781372
0.0782166
0.0782757
0.078321
0.0783586
0.0783932
0.0784277
0.0784638
0.0785021
0.0785427
0.0785852
0.0786284
0.07867
0.078706
0.0787309
0.078738
0.0787205
0.078672
0.0785893
0.0784749
0.078341
0.078214
0.0781442
0.0781413
0.618134
0.828791
1.0396
1.30268
1.72925
2.4371
3.39386
4.52151
5.85305
7.49189
9.70515
12.8158
17.1486
22.9874
30.4857
39.4331
48.9826
57.3032
63.5798
67.4469
68.7592
69.6895
73.1499
80.4168
92.2057
99.6284
109.091
110.205
117.704
125.733
134.882
143.183
152.724
161.002
165.718
170.072
174.248
177.137
177.407
175.545
179.53
147.807
87.8199
41.3129
6.9356
1.32507
0.35124
0.18788
0.173397
0.148555
0.11981
0.10287
0.0934757
0.0879009
0.0846851
0.0828685
0.081737
0.0809376
0.080359
0.0799417
0.0796452
0.0794258
0.0792418
0.0790616
0.0788632
0.0786302
0.0783693
0.0781033
0.0778612
0.0776795
0.0775841
0.0775814
0.0776556
0.0777761
0.0779102
0.0780351
0.0781384
0.0782178
0.0782768
0.078322
0.0783595
0.0783941
0.0784285
0.0784645
0.0785028
0.0785434
0.0785859
0.0786291
0.0786706
0.0787066
0.0787314
0.0787386
0.078721
0.0786725
0.0785898
0.0784755
0.0783416
0.0782146
0.0781448
0.0781417
0.775258
1.00457
1.19778
1.43369
1.77761
2.30377
3.01586
3.912
5.02551
6.4466
8.35006
11.0307
14.8317
20.0949
27.0817
35.749
45.5757
55.0569
63.0624
68.851
72.1939
75.1148
79.7749
87.4035
96.5081
105.557
113.964
112.659
119.508
127.123
134.18
144.555
153.648
161.415
166.147
170.352
174.002
176.421
175.549
172.929
168.623
139.465
78.8133
43.2217
5.26708
1.01021
0.293324
0.181883
0.171839
0.144893
0.117358
0.101891
0.0929818
0.0876477
0.0845557
0.0828028
0.081697
0.0809138
0.0803442
0.0799325
0.0796392
0.0794221
0.0792396
0.0790604
0.0788627
0.07863
0.0783694
0.0781034
0.0778614
0.0776798
0.0775845
0.077582
0.0776563
0.0777769
0.077911
0.078036
0.0781393
0.0782187
0.0782776
0.0783228
0.0783603
0.0783949
0.0784293
0.0784653
0.0785036
0.0785441
0.0785867
0.0786298
0.0786713
0.0787072
0.078732
0.0787392
0.0787216
0.0786731
0.0785904
0.0784761
0.0783422
0.0782153
0.0781453
0.0781422
1.03186
0.994037
1.02284
1.17201
1.45181
1.91143
2.56517
3.40307
4.44467
5.72625
7.39425
9.69041
12.9541
17.5578
23.8602
31.9976
41.6902
51.8354
61.025
68.2731
73.2655
77.6221
82.9166
90.3763
95.1365
111.695
111.835
112.695
119.731
127.45
140.723
145.525
154.074
161.359
165.853
169.769
172.817
174.662
172.391
167.865
159.543
129.973
70.171
33.1515
3.91269
0.779638
0.25312
0.179876
0.171271
0.142973
0.116447
0.101308
0.0925772
0.087425
0.0844458
0.0827412
0.0816553
0.0808873
0.0803265
0.0799209
0.0796311
0.0794168
0.079236
0.0790581
0.078861
0.0786288
0.0783685
0.0781026
0.0778608
0.0776793
0.0775842
0.0775819
0.0776564
0.0777772
0.0779115
0.0780366
0.07814
0.0782194
0.0782783
0.0783235
0.078361
0.0783955
0.07843
0.078466
0.0785043
0.0785449
0.0785874
0.0786305
0.078672
0.0787079
0.0787326
0.0787398
0.0787222
0.0786737
0.0785911
0.0784768
0.0783429
0.0782159
0.0781458
0.0781425
0.207739
0.309722
0.39678
0.553302
0.860613
1.36646
2.05998
2.91388
3.92063
5.10533
6.57235
8.51133
11.1984
15.0029
20.2946
27.3464
36.1413
46.2071
56.1564
64.6428
71.2222
77.0608
82.9421
89.2951
96.1019
103.522
106.609
110.661
117.902
126.532
137.115
145.43
153.924
160.343
164.213
167.384
169.23
169.851
164.627
155.903
142.052
109.044
62.2899
12.9757
2.08353
0.496939
0.20617
0.177089
0.166951
0.138344
0.11422
0.0999006
0.0918453
0.0870674
0.0842759
0.0826447
0.0815932
0.0808481
0.0803014
0.0799051
0.0796213
0.0794111
0.0792335
0.0790574
0.078861
0.0786295
0.0783695
0.0781037
0.0778619
0.0776804
0.0775855
0.0775833
0.077658
0.077779
0.0779134
0.0780386
0.078142
0.0782213
0.0782801
0.0783252
0.0783626
0.078397
0.0784314
0.0784673
0.0785056
0.0785462
0.0785887
0.0786318
0.0786732
0.0787089
0.0787337
0.0787408
0.0787232
0.0786747
0.078592
0.0784778
0.0783439
0.0782169
0.0781466
0.0781431
0.0994175
0.120015
0.167865
0.30219
0.594794
1.08636
1.76325
2.59125
3.55072
4.65389
5.96094
7.59088
9.7275
12.6542
16.7376
22.2828
29.4063
37.9045
47.0548
55.5565
62.6427
68.9507
74.9311
81.1433
88.4943
95.0659
99.6622
105.313
113.439
123.601
134.332
143.825
151.392
156.266
158.618
160.095
159.778
158.044
147.478
131.8
115.244
82.3121
36.7728
5.72247
1.18274
0.329177
0.180267
0.172326
0.157763
0.130493
0.109892
0.0979813
0.0909384
0.0866342
0.0840644
0.082521
0.0815146
0.0807974
0.0802693
0.0798849
0.0796093
0.0794043
0.0792306
0.0790568
0.0788616
0.0786311
0.0783714
0.0781058
0.077864
0.0776824
0.0775877
0.0775858
0.0776607
0.077782
0.0779164
0.0780415
0.0781449
0.0782241
0.0782827
0.0783276
0.0783649
0.0783991
0.0784334
0.0784692
0.0785074
0.078548
0.0785904
0.0786334
0.0786746
0.0787103
0.0787349
0.0787419
0.0787242
0.0786757
0.0785931
0.0784789
0.078345
0.0782182
0.0781478
0.078144
0.096139
0.109856
0.150686
0.276441
0.547955
0.997142
1.6148
2.37579
3.26596
4.29507
5.50058
6.94688
8.74147
11.0614
14.1847
18.3838
23.814
30.4104
37.8508
45.4704
52.5008
59.0416
65.3563
72.0035
79.485
86.9917
93.2582
100.391
109.731
120.864
131.774
140.782
146.747
149.035
149.115
148.481
145.858
140.555
123.863
100.539
76.0534
55.4198
14.2786
3.06729
0.693867
0.234661
0.170273
0.170021
0.150466
0.124607
0.106654
0.096372
0.0901182
0.086223
0.083849
0.0823916
0.0814297
0.0807419
0.0802331
0.0798617
0.0795946
0.0793952
0.0792251
0.0790537
0.0788603
0.0786308
0.0783718
0.0781063
0.0778647
0.0776832
0.0775887
0.0775871
0.0776625
0.077784
0.0779186
0.0780438
0.0781471
0.0782262
0.0782847
0.0783295
0.0783666
0.0784007
0.0784349
0.0784707
0.0785088
0.0785494
0.0785917
0.0786345
0.0786756
0.0787111
0.0787355
0.0787424
0.0787247
0.0786762