/*--------------------------------*- C++ -*----------------------------------*\
  =========                 |
  \\      /  F ield         | OpenFOAM: The Open Source CFD Toolbox
   \\    /   O peration     | Website:  https://openfoam.org
    \\  /    A nd           | Version:  6
     \\/     M anipulation  |
\*---------------------------------------------------------------------------*/
FoamFile
{
    version     2.0;
    format      ascii;
    class       volScalarField;
    location    "0.005";
    object      N2;
}
// * * * * * * * * * * * * * * * * * * * * * * * * * * * * * * * * * * * * * //

dimensions      [0 0 0 0 0 0 0];

internalField   nonuniform List<scalar> 
8000
(
0.744431
0.744412
0.744399
0.744372
0.744311
0.744186
0.743981
0.743705
0.743418
0.743139
0.742845
0.742526
0.742196
0.741923
0.741776
0.74172
0.741641
0.741443
0.741081
0.740318
0.73864
0.734525
0.724362
0.720775
0.70462
0.678869
0.664121
0.663069
0.66753
0.670841
0.669846
0.664688
0.656508
0.647669
0.63855
0.631908
0.62532
0.620332
0.61555
0.612663
0.609459
0.610079
0.615912
0.625424
0.646347
0.686442
0.714977
0.724176
0.732747
0.746311
0.75262
0.753924
0.754228
0.754249
0.75425
0.75425
0.75425
0.75425
0.75425
0.75425
0.75425
0.75425
0.75425
0.75425
0.75425
0.75425
0.75425
0.75425
0.75425
0.75425
0.75425
0.75425
0.75425
0.75425
0.75425
0.75425
0.75425
0.75425
0.75425
0.75425
0.75425
0.75425
0.75425
0.75425
0.75425
0.75425
0.75425
0.75425
0.75425
0.75425
0.75425
0.75425
0.75425
0.75425
0.75425
0.75425
0.75425
0.75425
0.75425
0.75425
0.744388
0.7443
0.744306
0.744285
0.744225
0.744072
0.743787
0.743351
0.742917
0.742597
0.742281
0.741937
0.741558
0.74119
0.741064
0.741136
0.741163
0.741007
0.740715
0.74005
0.738331
0.732194
0.66078
0.706805
0.698544
0.669533
0.652355
0.656363
0.665588
0.6709
0.670397
0.665103
0.656572
0.647334
0.637818
0.630812
0.624754
0.61936
0.615192
0.610148
0.607656
0.609777
0.615676
0.625186
0.645734
0.683958
0.714857
0.72623
0.730787
0.743902
0.751758
0.753795
0.754225
0.754248
0.75425
0.75425
0.75425
0.75425
0.75425
0.75425
0.75425
0.75425
0.75425
0.75425
0.75425
0.75425
0.75425
0.75425
0.75425
0.75425
0.75425
0.75425
0.75425
0.75425
0.75425
0.75425
0.75425
0.75425
0.75425
0.75425
0.75425
0.75425
0.75425
0.75425
0.75425
0.75425
0.75425
0.75425
0.75425
0.75425
0.75425
0.75425
0.75425
0.75425
0.75425
0.75425
0.75425
0.75425
0.75425
0.75425
0.744237
0.74352
0.74391
0.743923
0.743971
0.743818
0.74342
0.742626
0.741457
0.741304
0.740972
0.740615
0.74023
0.739622
0.739267
0.739813
0.74024
0.740106
0.739933
0.73954
0.738358
0.73514
0.721042
0.722912
0.71204
0.676382
0.620758
0.651327
0.667708
0.673529
0.672138
0.665824
0.656462
0.646486
0.636147
0.628279
0.623099
0.618478
0.613711
0.609404
0.606954
0.60763
0.614437
0.624265
0.643792
0.680583
0.710983
0.730326
0.736262
0.747253
0.752767
0.753983
0.754235
0.754249
0.75425
0.75425
0.75425
0.75425
0.75425
0.75425
0.75425
0.75425
0.75425
0.75425
0.75425
0.75425
0.75425
0.75425
0.75425
0.75425
0.75425
0.75425
0.75425
0.75425
0.75425
0.75425
0.75425
0.75425
0.75425
0.75425
0.75425
0.75425
0.75425
0.75425
0.75425
0.75425
0.75425
0.75425
0.75425
0.75425
0.75425
0.75425
0.75425
0.75425
0.75425
0.75425
0.75425
0.75425
0.75425
0.75425
0.744382
0.744228
0.744057
0.743844
0.743635
0.743448
0.743077
0.742418
0.741338
0.739763
0.738676
0.738325
0.737976
0.738897
0.739623
0.739829
0.739638
0.738669
0.738672
0.738618
0.737756
0.735306
0.730916
0.728254
0.72044
0.700891
0.681219
0.673313
0.673939
0.673552
0.672672
0.665642
0.655654
0.645091
0.633571
0.62561
0.620896
0.616111
0.61276
0.606862
0.606057
0.60674
0.613696
0.623596
0.642611
0.681767
0.719875
0.736809
0.744544
0.750638
0.753412
0.754126
0.754241
0.754249
0.75425
0.75425
0.75425
0.75425
0.75425
0.75425
0.75425
0.75425
0.75425
0.75425
0.75425
0.75425
0.75425
0.75425
0.75425
0.75425
0.75425
0.75425
0.75425
0.75425
0.75425
0.75425
0.75425
0.75425
0.75425
0.75425
0.75425
0.75425
0.75425
0.75425
0.75425
0.75425
0.75425
0.75425
0.75425
0.75425
0.75425
0.75425
0.75425
0.75425
0.75425
0.75425
0.75425
0.75425
0.75425
0.75425
0.74438
0.744092
0.743407
0.742894
0.742131
0.74245
0.742334
0.741831
0.741085
0.738749
0.731226
0.732652
0.735512
0.738505
0.739379
0.739202
0.738774
0.737835
0.737318
0.737264
0.736613
0.735175
0.732447
0.726646
0.720207
0.708801
0.689649
0.650243
0.663931
0.673844
0.672761
0.664506
0.654102
0.642449
0.630483
0.61566
0.617369
0.614083
0.607952
0.605671
0.605071
0.605791
0.610439
0.622297
0.641312
0.68185
0.722478
0.74072
0.748353
0.752305
0.753699
0.754168
0.754241
0.754249
0.75425
0.75425
0.75425
0.75425
0.75425
0.75425
0.75425
0.75425
0.75425
0.75425
0.75425
0.75425
0.75425
0.75425
0.75425
0.75425
0.75425
0.75425
0.75425
0.75425
0.75425
0.75425
0.75425
0.75425
0.75425
0.75425
0.75425
0.75425
0.75425
0.75425
0.75425
0.75425
0.75425
0.75425
0.75425
0.75425
0.75425
0.75425
0.75425
0.75425
0.75425
0.75425
0.75425
0.75425
0.75425
0.75425
0.744359
0.743968
0.742933
0.741658
0.741364
0.741327
0.742093
0.74208
0.74155
0.740361
0.738714
0.738499
0.739018
0.739607
0.739623
0.73899
0.737603
0.736325
0.7341
0.734588
0.734336
0.733991
0.731622
0.725543
0.713245
0.708212
0.698626
0.673497
0.681144
0.682774
0.675795
0.662539
0.650421
0.640459
0.628824
0.621265
0.61621
0.610775
0.606879
0.604436
0.604108
0.604911
0.60648
0.621476
0.639823
0.679537
0.72199
0.742033
0.749869
0.752791
0.753676
0.754082
0.754235
0.754248
0.75425
0.75425
0.75425
0.75425
0.75425
0.75425
0.75425
0.75425
0.75425
0.75425
0.75425
0.75425
0.75425
0.75425
0.75425
0.75425
0.75425
0.75425
0.75425
0.75425
0.75425
0.75425
0.75425
0.75425
0.75425
0.75425
0.75425
0.75425
0.75425
0.75425
0.75425
0.75425
0.75425
0.75425
0.75425
0.75425
0.75425
0.75425
0.75425
0.75425
0.75425
0.75425
0.75425
0.75425
0.75425
0.75425
0.74435
0.744175
0.743788
0.743326
0.742881
0.742506
0.742214
0.741863
0.741361
0.740812
0.740189
0.739674
0.73974
0.739772
0.73929
0.73813
0.736613
0.733573
0.728286
0.730437
0.731262
0.73196
0.729727
0.722163
0.679702
0.697577
0.702752
0.698837
0.695265
0.686912
0.674964
0.661777
0.649468
0.638065
0.627449
0.619759
0.614281
0.608215
0.606132
0.601996
0.603292
0.604152
0.607653
0.621019
0.638086
0.675171
0.719969
0.741331
0.749625
0.752661
0.753509
0.753918
0.754224
0.754248
0.75425
0.75425
0.75425
0.75425
0.75425
0.75425
0.75425
0.75425
0.75425
0.75425
0.75425
0.75425
0.75425
0.75425
0.75425
0.75425
0.75425
0.75425
0.75425
0.75425
0.75425
0.75425
0.75425
0.75425
0.75425
0.75425
0.75425
0.75425
0.75425
0.75425
0.75425
0.75425
0.75425
0.75425
0.75425
0.75425
0.75425
0.75425
0.75425
0.75425
0.75425
0.75425
0.75425
0.75425
0.75425
0.75425
0.743809
0.743895
0.743841
0.743432
0.742911
0.742184
0.741753
0.740718
0.739571
0.740044
0.740129
0.740244
0.740078
0.739161
0.73812
0.736954
0.734391
0.730364
0.718058
0.722858
0.727027
0.727749
0.726747
0.720577
0.705716
0.707384
0.709898
0.70599
0.696895
0.682294
0.667114
0.655067
0.644186
0.635006
0.624844
0.617071
0.610816
0.607355
0.605783
0.6034
0.602744
0.603399
0.607489
0.620183
0.636065
0.669966
0.717827
0.740541
0.748823
0.751042
0.75337
0.754048
0.754229
0.754247
0.75425
0.75425
0.75425
0.75425
0.75425
0.75425
0.75425
0.75425
0.75425
0.75425
0.75425
0.75425
0.75425
0.75425
0.75425
0.75425
0.75425
0.75425
0.75425
0.75425
0.75425
0.75425
0.75425
0.75425
0.75425
0.75425
0.75425
0.75425
0.75425
0.75425
0.75425
0.75425
0.75425
0.75425
0.75425
0.75425
0.75425
0.75425
0.75425
0.75425
0.75425
0.75425
0.75425
0.75425
0.75425
0.75425
0.743505
0.74366
0.743404
0.742664
0.742107
0.741897
0.741041
0.73957
0.736718
0.738905
0.739429
0.739862
0.739705
0.738858
0.737732
0.736276
0.733549
0.727356
0.688908
0.713293
0.721212
0.722477
0.722651
0.71645
0.708445
0.712257
0.712043
0.705851
0.690344
0.670729
0.650906
0.645356
0.638904
0.630185
0.621299
0.614511
0.607984
0.606819
0.605836
0.603734
0.60078
0.601264
0.607271
0.620124
0.633837
0.668002
0.717336
0.741372
0.749626
0.75249
0.753597
0.754114
0.754229
0.754245
0.754249
0.75425
0.75425
0.75425
0.75425
0.75425
0.75425
0.75425
0.75425
0.75425
0.75425
0.75425
0.75425
0.75425
0.75425
0.75425
0.75425
0.75425
0.75425
0.75425
0.75425
0.75425
0.75425
0.75425
0.75425
0.75425
0.75425
0.75425
0.75425
0.75425
0.75425
0.75425
0.75425
0.75425
0.75425
0.75425
0.75425
0.75425
0.75425
0.75425
0.75425
0.75425
0.75425
0.75425
0.75425
0.75425
0.743959
0.742963
0.742319
0.742537
0.742217
0.74141
0.741033
0.740272
0.739315
0.739276
0.739507
0.73907
0.738524
0.736947
0.733302
0.734786
0.733237
0.723081
0.694034
0.706538
0.713132
0.709794
0.713958
0.711521
0.710768
0.711927
0.709219
0.701789
0.687404
0.667675
0.653885
0.642383
0.63129
0.627137
0.618072
0.607398
0.606903
0.606606
0.606269
0.604577
0.601452
0.603251
0.607324
0.620341
0.638435
0.673083
0.719615
0.742955
0.75011
0.752586
0.753512
0.754111
0.754222
0.75424
0.754247
0.75425
0.75425
0.75425
0.75425
0.75425
0.75425
0.75425
0.75425
0.75425
0.75425
0.75425
0.75425
0.75425
0.75425
0.75425
0.75425
0.75425
0.75425
0.75425
0.75425
0.75425
0.75425
0.75425
0.75425
0.75425
0.75425
0.75425
0.75425
0.75425
0.75425
0.75425
0.75425
0.75425
0.75425
0.75425
0.75425
0.75425
0.75425
0.75425
0.75425
0.75425
0.75425
0.75425
0.75425
0.75425
0.742922
0.743557
0.743321
0.742904
0.742172
0.740937
0.740088
0.739435
0.739264
0.739042
0.738411
0.737641
0.736792
0.735766
0.735086
0.734656
0.73248
0.722523
0.698787
0.688331
0.704793
0.700742
0.703971
0.694084
0.700595
0.705498
0.700846
0.693308
0.678989
0.6634
0.650556
0.639368
0.630141
0.623269
0.616084
0.60721
0.606409
0.605359
0.607034
0.605773
0.604362
0.603726
0.607408
0.621315
0.640031
0.676157
0.723328
0.744379
0.750825
0.752791
0.75368
0.754109
0.754207
0.754229
0.754243
0.754249
0.75425
0.75425
0.75425
0.75425
0.75425
0.75425
0.75425
0.75425
0.75425
0.75425
0.75425
0.75425
0.75425
0.75425
0.75425
0.75425
0.75425
0.75425
0.75425
0.75425
0.75425
0.75425
0.75425
0.75425
0.75425
0.75425
0.75425
0.75425
0.75425
0.75425
0.75425
0.75425
0.75425
0.75425
0.75425
0.75425
0.75425
0.75425
0.75425
0.75425
0.75425
0.75425
0.75425
0.75425
0.744181
0.743747
0.742869
0.741469
0.740656
0.739793
0.738817
0.73798
0.734951
0.734988
0.734857
0.734345
0.731902
0.731036
0.732639
0.732194
0.729615
0.720714
0.699841
0.697429
0.700456
0.698931
0.692868
0.684844
0.694471
0.697407
0.690063
0.682287
0.666942
0.649968
0.64295
0.634364
0.626171
0.61431
0.615744
0.609495
0.605432
0.607561
0.60812
0.607121
0.605736
0.604042
0.606305
0.621956
0.642041
0.678954
0.726487
0.745628
0.751527
0.752904
0.753631
0.75408
0.754178
0.75421
0.754232
0.754247
0.75425
0.75425
0.75425
0.75425
0.75425
0.75425
0.75425
0.75425
0.75425
0.75425
0.75425
0.75425
0.75425
0.75425
0.75425
0.75425
0.75425
0.75425
0.75425
0.75425
0.75425
0.75425
0.75425
0.75425
0.75425
0.75425
0.75425
0.75425
0.75425
0.75425
0.75425
0.75425
0.75425
0.75425
0.75425
0.75425
0.75425
0.75425
0.75425
0.75425
0.75425
0.75425
0.75425
0.75425
0.744035
0.742526
0.74082
0.738702
0.736816
0.735447
0.734726
0.729468
0.696101
0.709175
0.721354
0.723354
0.724279
0.725772
0.727357
0.726609
0.720429
0.714601
0.701773
0.694641
0.688792
0.689674
0.682607
0.675489
0.686548
0.687562
0.681153
0.671252
0.658847
0.645084
0.637072
0.628802
0.621976
0.618464
0.616187
0.610807
0.607106
0.607185
0.609424
0.608505
0.607042
0.603422
0.606851
0.622874
0.644628
0.687353
0.730573
0.746962
0.752089
0.753247
0.753839
0.754074
0.754123
0.754172
0.754211
0.75424
0.75425
0.75425
0.75425
0.75425
0.75425
0.75425
0.75425
0.75425
0.75425
0.75425
0.75425
0.75425
0.75425
0.75425
0.75425
0.75425
0.75425
0.75425
0.75425
0.75425
0.75425
0.75425
0.75425
0.75425
0.75425
0.75425
0.75425
0.75425
0.75425
0.75425
0.75425
0.75425
0.75425
0.75425
0.75425
0.75425
0.75425
0.75425
0.75425
0.75425
0.75425
0.75425
0.75425
0.75425
0.742105
0.733299
0.731547
0.729862
0.726433
0.707184
0.719949
0.71973
0.70412
0.705035
0.705927
0.709002
0.71065
0.712972
0.716078
0.717802
0.713305
0.701553
0.695157
0.685588
0.664575
0.67751
0.676598
0.674619
0.674914
0.674288
0.669415
0.662642
0.650129
0.636766
0.629486
0.623756
0.613301
0.617475
0.61722
0.61432
0.61151
0.609592
0.610952
0.609866
0.608365
0.605802
0.610775
0.624706
0.648594
0.697414
0.73373
0.748498
0.752521
0.753453
0.753923
0.754066
0.754086
0.75411
0.754175
0.754216
0.754248
0.75425
0.75425
0.75425
0.75425
0.75425
0.75425
0.75425
0.75425
0.75425
0.75425
0.75425
0.75425
0.75425
0.75425
0.75425
0.75425
0.75425
0.75425
0.75425
0.75425
0.75425
0.75425
0.75425
0.75425
0.75425
0.75425
0.75425
0.75425
0.75425
0.75425
0.75425
0.75425
0.75425
0.75425
0.75425
0.75425
0.75425
0.75425
0.75425
0.75425
0.75425
0.75425
0.75425
0.733442
0.645974
0.666004
0.68467
0.696792
0.686414
0.702069
0.695976
0.680722
0.678302
0.668301
0.678064
0.682189
0.689925
0.686132
0.702183
0.705958
0.703074
0.692868
0.675905
0.665157
0.672166
0.672604
0.669906
0.666584
0.658248
0.660111
0.652543
0.641358
0.61954
0.617861
0.614909
0.612674
0.613213
0.613674
0.613388
0.619394
0.619124
0.611141
0.613294
0.608444
0.606821
0.609005
0.621375
0.652536
0.705026
0.736996
0.749457
0.752722
0.75351
0.753954
0.754067
0.754074
0.754076
0.75412
0.754232
0.754249
0.75425
0.75425
0.75425
0.75425
0.75425
0.75425
0.75425
0.75425
0.75425
0.75425
0.75425
0.75425
0.75425
0.75425
0.75425
0.75425
0.75425
0.75425
0.75425
0.75425
0.75425
0.75425
0.75425
0.75425
0.75425
0.75425
0.75425
0.75425
0.75425
0.75425
0.75425
0.75425
0.75425
0.75425
0.75425
0.75425
0.75425
0.75425
0.75425
0.75425
0.75425
0.75425
0.75425
0.715519
0.677233
0.667342
0.630577
0.658493
0.672807
0.68633
0.679081
0.666677
0.649595
0.618941
0.631502
0.651636
0.667245
0.679358
0.690746
0.696955
0.69725
0.68683
0.675306
0.673739
0.672599
0.667556
0.660822
0.652101
0.651071
0.648479
0.642241
0.636041
0.627754
0.618986
0.622285
0.620449
0.621608
0.622514
0.616663
0.617281
0.623298
0.614144
0.611851
0.616554
0.607168
0.611141
0.629219
0.658936
0.714052
0.740458
0.750363
0.752916
0.753528
0.753984
0.754091
0.754098
0.754074
0.753985
0.754217
0.754249
0.75425
0.75425
0.75425
0.75425
0.75425
0.75425
0.75425
0.75425
0.75425
0.75425
0.75425
0.75425
0.75425
0.75425
0.75425
0.75425
0.75425
0.75425
0.75425
0.75425
0.75425
0.75425
0.75425
0.75425
0.75425
0.75425
0.75425
0.75425
0.75425
0.75425
0.75425
0.75425
0.75425
0.75425
0.75425
0.75425
0.75425
0.75425
0.75425
0.75425
0.75425
0.75425
0.75425
0.695377
0.690138
0.673581
0.653085
0.639171
0.661191
0.674018
0.672345
0.659436
0.624326
0.615049
0.607662
0.624834
0.647419
0.664729
0.675366
0.683163
0.686698
0.677865
0.675756
0.673771
0.669811
0.663823
0.651854
0.646497
0.64431
0.640419
0.633721
0.630081
0.626167
0.627804
0.625394
0.62567
0.626251
0.620895
0.62229
0.622564
0.629552
0.62665
0.614383
0.612397
0.616161
0.614403
0.633927
0.664062
0.72116
0.743187
0.75109
0.752969
0.753577
0.754067
0.754162
0.75418
0.754173
0.754185
0.754243
0.75425
0.75425
0.75425
0.75425
0.75425
0.75425
0.75425
0.75425
0.75425
0.75425
0.75425
0.75425
0.75425
0.75425
0.75425
0.75425
0.75425
0.75425
0.75425
0.75425
0.75425
0.75425
0.75425
0.75425
0.75425
0.75425
0.75425
0.75425
0.75425
0.75425
0.75425
0.75425
0.75425
0.75425
0.75425
0.75425
0.75425
0.75425
0.75425
0.75425
0.75425
0.75425
0.75425
0.75425
0.68321
0.68989
0.679297
0.666513
0.648084
0.65879
0.671018
0.671193
0.65972
0.642423
0.624043
0.613146
0.616707
0.635772
0.655747
0.667253
0.673631
0.677068
0.674049
0.673656
0.671666
0.667553
0.663928
0.656995
0.650825
0.648005
0.646565
0.643287
0.64063
0.6366
0.630774
0.62176
0.621888
0.631488
0.626398
0.635977
0.635978
0.633965
0.630763
0.626664
0.614691
0.613371
0.625396
0.638674
0.672909
0.727016
0.745738
0.751587
0.75301
0.75386
0.754164
0.754208
0.75422
0.754226
0.754237
0.754248
0.75425
0.75425
0.75425
0.75425
0.75425
0.75425
0.75425
0.75425
0.75425
0.75425
0.75425
0.75425
0.75425
0.75425
0.75425
0.75425
0.75425
0.75425
0.75425
0.75425
0.75425
0.75425
0.75425
0.75425
0.75425
0.75425
0.75425
0.75425
0.75425
0.75425
0.75425
0.75425
0.75425
0.75425
0.75425
0.75425
0.75425
0.75425
0.75425
0.75425
0.75425
0.75425
0.75425
0.75425
0.679717
0.686064
0.682244
0.676413
0.667783
0.670454
0.675593
0.674579
0.666736
0.659141
0.65283
0.652169
0.648929
0.660056
0.66619
0.669095
0.670747
0.671108
0.669518
0.669783
0.667782
0.665692
0.664345
0.661031
0.655594
0.649097
0.649951
0.649529
0.646932
0.641039
0.632427
0.629789
0.63516
0.62876
0.633463
0.643497
0.643266
0.640778
0.62529
0.630343
0.618014
0.62476
0.630273
0.639203
0.683457
0.73185
0.747524
0.752068
0.753381
0.753986
0.754197
0.754226
0.754237
0.754243
0.754248
0.75425
0.75425
0.75425
0.75425
0.75425
0.75425
0.75425
0.75425
0.75425
0.75425
0.75425
0.75425
0.75425
0.75425
0.75425
0.75425
0.75425
0.75425
0.75425
0.75425
0.75425
0.75425
0.75425
0.75425
0.75425
0.75425
0.75425
0.75425
0.75425
0.75425
0.75425
0.75425
0.75425
0.75425
0.75425
0.75425
0.75425
0.75425
0.75425
0.75425
0.75425
0.75425
0.75425
0.75425
0.75425
0.679044
0.682759
0.682831
0.681672
0.67912
0.678941
0.680055
0.678355
0.674347
0.672382
0.672612
0.674515
0.677938
0.679781
0.678278
0.675455
0.670116
0.667144
0.666927
0.664608
0.665765
0.664531
0.66537
0.663679
0.660544
0.656085
0.654421
0.653705
0.650908
0.64533
0.640576
0.643617
0.637718
0.637825
0.647026
0.647855
0.641127
0.644398
0.631074
0.633231
0.6291
0.621096
0.636531
0.650824
0.694617
0.736409
0.748792
0.75248
0.753546
0.754007
0.754179
0.754225
0.754242
0.754247
0.754249
0.75425
0.75425
0.75425
0.75425
0.75425
0.75425
0.75425
0.75425
0.75425
0.75425
0.75425
0.75425
0.75425
0.75425
0.75425
0.75425
0.75425
0.75425
0.75425
0.75425
0.75425
0.75425
0.75425
0.75425
0.75425
0.75425
0.75425
0.75425
0.75425
0.75425
0.75425
0.75425
0.75425
0.75425
0.75425
0.75425
0.75425
0.75425
0.75425
0.75425
0.75425
0.75425
0.75425
0.75425
0.75425
0.678913
0.680594
0.681803
0.682545
0.682511
0.682291
0.682136
0.681379
0.680718
0.68238
0.685606
0.689131
0.691921
0.691843
0.688651
0.683818
0.677303
0.671881
0.668778
0.664033
0.663706
0.665873
0.664989
0.663825
0.662472
0.660552
0.657013
0.657019
0.654325
0.649461
0.651301
0.649698
0.65016
0.650843
0.651941
0.652025
0.650968
0.6482
0.640521
0.630276
0.63187
0.631411
0.640848
0.654141
0.70417
0.740133
0.749786
0.752728
0.753512
0.753947
0.754101
0.754198
0.754238
0.754246
0.754249
0.75425
0.75425
0.75425
0.75425
0.75425
0.75425
0.75425
0.75425
0.75425
0.75425
0.75425
0.75425
0.75425
0.75425
0.75425
0.75425
0.75425
0.75425
0.75425
0.75425
0.75425
0.75425
0.75425
0.75425
0.75425
0.75425
0.75425
0.75425
0.75425
0.75425
0.75425
0.75425
0.75425
0.75425
0.75425
0.75425
0.75425
0.75425
0.75425
0.75425
0.75425
0.75425
0.75425
0.75425
0.75425
0.678893
0.679571
0.680567
0.681665
0.682563
0.683084
0.683637
0.6847
0.686829
0.691181
0.696289
0.700618
0.702943
0.702021
0.698105
0.692285
0.685475
0.679251
0.673521
0.668566
0.667951
0.667791
0.665441
0.660258
0.660876
0.661777
0.660899
0.660236
0.657839
0.652609
0.651478
0.656388
0.657294
0.657761
0.64979
0.657299
0.654865
0.651076
0.649275
0.64178
0.637172
0.636868
0.645786
0.666424
0.713579
0.742878
0.750653
0.75288
0.753535
0.75385
0.754038
0.754068
0.754224
0.754243
0.754246
0.754248
0.75425
0.75425
0.75425
0.75425
0.75425
0.75425
0.75425
0.75425
0.75425
0.75425
0.75425
0.75425
0.75425
0.75425
0.75425
0.75425
0.75425
0.75425
0.75425
0.75425
0.75425
0.75425
0.75425
0.75425
0.75425
0.75425
0.75425
0.75425
0.75425
0.75425
0.75425
0.75425
0.75425
0.75425
0.75425
0.75425
0.75425
0.75425
0.75425
0.75425
0.75425
0.75425
0.75425
0.75425
0.678921
0.679319
0.680083
0.681241
0.682659
0.68417
0.686289
0.689625
0.694502
0.701157
0.707326
0.711456
0.712849
0.711225
0.706773
0.700332
0.692947
0.685784
0.678997
0.674146
0.671153
0.668974
0.666407
0.664047
0.663387
0.662509
0.661233
0.662682
0.66219
0.662008
0.662199
0.654633
0.654692
0.661937
0.661424
0.660441
0.658231
0.654765
0.649899
0.64394
0.639598
0.639861
0.652595
0.676102
0.721802
0.745136
0.751336
0.752952
0.753598
0.75394
0.754029
0.754029
0.75421
0.75424
0.754242
0.754244
0.75425
0.75425
0.75425
0.75425
0.75425
0.75425
0.75425
0.75425
0.75425
0.75425
0.75425
0.75425
0.75425
0.75425
0.75425
0.75425
0.75425
0.75425
0.75425
0.75425
0.75425
0.75425
0.75425
0.75425
0.75425
0.75425
0.75425
0.75425
0.75425
0.75425
0.75425
0.75425
0.75425
0.75425
0.75425
0.75425
0.75425
0.75425
0.75425
0.75425
0.75425
0.75425
0.75425
0.75425
0.679009
0.679507
0.680375
0.681853
0.68403
0.686931
0.691263
0.69733
0.70465
0.712271
0.718115
0.721127
0.721424
0.719121
0.714409
0.707619
0.699758
0.691869
0.684315
0.67795
0.671599
0.669317
0.666657
0.665158
0.664268
0.663639
0.664179
0.665511
0.666191
0.66689
0.667006
0.661349
0.666116
0.66594
0.665
0.663491
0.655737
0.65646
0.652178
0.645975
0.641802
0.639307
0.658939
0.686666
0.728625
0.746909
0.751831
0.753162
0.753775
0.753994
0.754042
0.754152
0.754231
0.75424
0.754238
0.754227
0.754248
0.75425
0.75425
0.75425
0.75425
0.75425
0.75425
0.75425
0.75425
0.75425
0.75425
0.75425
0.75425
0.75425
0.75425
0.75425
0.75425
0.75425
0.75425
0.75425
0.75425
0.75425
0.75425
0.75425
0.75425
0.75425
0.75425
0.75425
0.75425
0.75425
0.75425
0.75425
0.75425
0.75425
0.75425
0.75425
0.75425
0.75425
0.75425
0.75425
0.75425
0.75425
0.75425
0.75425
0.679217
0.680135
0.681429
0.683552
0.68694
0.691852
0.698861
0.707306
0.71569
0.722714
0.727221
0.728955
0.72832
0.725526
0.720726
0.713978
0.705924
0.697579
0.689506
0.682379
0.676359
0.671134
0.666822
0.666193
0.665927
0.664997
0.665525
0.668789
0.670456
0.671548
0.671573
0.670824
0.670187
0.669315
0.668081
0.666237
0.662379
0.658024
0.654432
0.647969
0.644231
0.647121
0.666952
0.697132
0.733888
0.748271
0.752241
0.753351
0.753863
0.754013
0.754124
0.754215
0.75424
0.754243
0.754241
0.754243
0.754249
0.75425
0.75425
0.75425
0.75425
0.75425
0.75425
0.75425
0.75425
0.75425
0.75425
0.75425
0.75425
0.75425
0.75425
0.75425
0.75425
0.75425
0.75425
0.75425
0.75425
0.75425
0.75425
0.75425
0.75425
0.75425
0.75425
0.75425
0.75425
0.75425
0.75425
0.75425
0.75425
0.75425
0.75425
0.75425
0.75425
0.75425
0.75425
0.75425
0.75425
0.75425
0.75425
0.75425
0.679695
0.681585
0.6837
0.68674
0.691654
0.698847
0.708091
0.717572
0.725479
0.731122
0.734138
0.73482
0.733555
0.730502
0.725752
0.719312
0.711412
0.702972
0.694631
0.687083
0.680829
0.675001
0.669204
0.66905
0.668853
0.669955
0.671204
0.672731
0.674786
0.676044
0.67591
0.675062
0.673847
0.669024
0.668528
0.668327
0.663937
0.659429
0.655853
0.64992
0.647062
0.652939
0.675357
0.706816
0.738259
0.749313
0.752513
0.753498
0.753922
0.75403
0.754131
0.754231
0.754245
0.754246
0.754246
0.754248
0.75425
0.75425
0.75425
0.75425
0.75425
0.75425
0.75425
0.75425
0.75425
0.75425
0.75425
0.75425
0.75425
0.75425
0.75425
0.75425
0.75425
0.75425
0.75425
0.75425
0.75425
0.75425
0.75425
0.75425
0.75425
0.75425
0.75425
0.75425
0.75425
0.75425
0.75425
0.75425
0.75425
0.75425
0.75425
0.75425
0.75425
0.75425
0.75425
0.75425
0.75425
0.75425
0.75425
0.75425
0.680789
0.684741
0.688285
0.692409
0.698739
0.707631
0.71771
0.726629
0.733131
0.73722
0.739067
0.739041
0.737418
0.734286
0.729697
0.723661
0.716188
0.707971
0.699665
0.69191
0.685366
0.679929
0.675462
0.673281
0.671617
0.674532
0.676271
0.675585
0.679156
0.680401
0.679988
0.678869
0.677186
0.675257
0.673647
0.670012
0.6653
0.660803
0.65732
0.654304
0.652324
0.657854
0.684686
0.715786
0.741484
0.750187
0.752723
0.753621
0.75397
0.754077
0.754202
0.75424
0.754247
0.754248
0.754249
0.75425
0.75425
0.75425
0.75425
0.75425
0.75425
0.75425
0.75425
0.75425
0.75425
0.75425
0.75425
0.75425
0.75425
0.75425
0.75425
0.75425
0.75425
0.75425
0.75425
0.75425
0.75425
0.75425
0.75425
0.75425
0.75425
0.75425
0.75425
0.75425
0.75425
0.75425
0.75425
0.75425
0.75425
0.75425
0.75425
0.75425
0.75425
0.75425
0.75425
0.75425
0.75425
0.75425
0.75425
0.75425
0.683263
0.691088
0.696739
0.701746
0.708691
0.717719
0.726817
0.733971
0.73875
0.741565
0.742558
0.742042
0.740249
0.737168
0.732805
0.727175
0.720255
0.7125
0.704528
0.697009
0.689568
0.685417
0.681423
0.678696
0.677307
0.679703
0.681515
0.682018
0.683811
0.684628
0.683748
0.682378
0.68032
0.678115
0.675668
0.671417
0.666639
0.662264
0.658935
0.656108
0.650405
0.664333
0.694367
0.722186
0.744154
0.75096
0.752909
0.753727
0.754016
0.754094
0.754215
0.754243
0.754249
0.754249
0.75425
0.75425
0.75425
0.75425
0.75425
0.75425
0.75425
0.75425
0.75425
0.75425
0.75425
0.75425
0.75425
0.75425
0.75425
0.75425
0.75425
0.75425
0.75425
0.75425
0.75425
0.75425
0.75425
0.75425
0.75425
0.75425
0.75425
0.75425
0.75425
0.75425
0.75425
0.75425
0.75425
0.75425
0.75425
0.75425
0.75425
0.75425
0.75425
0.75425
0.75425
0.75425
0.75425
0.75425
0.75425
0.75425
0.688746
0.702284
0.709991
0.714939
0.720881
0.728056
0.734705
0.739725
0.742977
0.744698
0.745003
0.744179
0.742354
0.739407
0.735304
0.730065
0.723708
0.716513
0.709085
0.702143
0.695955
0.691447
0.687755
0.684976
0.684112
0.684991
0.685891
0.687318
0.688366
0.688644
0.687107
0.685567
0.68318
0.68041
0.677275
0.672806
0.667992
0.663748
0.660722
0.658292
0.659731
0.67157
0.703701
0.729034
0.746309
0.751572
0.753114
0.753819
0.754049
0.754144
0.75421
0.754241
0.754249
0.75425
0.75425
0.75425
0.75425
0.75425
0.75425
0.75425
0.75425
0.75425
0.75425
0.75425
0.75425
0.75425
0.75425
0.75425
0.75425
0.75425
0.75425
0.75425
0.75425
0.75425
0.75425
0.75425
0.75425
0.75425
0.75425
0.75425
0.75425
0.75425
0.75425
0.75425
0.75425
0.75425
0.75425
0.75425
0.75425
0.75425
0.75425
0.75425
0.75425
0.75425
0.75425
0.75425
0.75425
0.75425
0.75425
0.75425
0.70113
0.719296
0.726604
0.729701
0.732976
0.737111
0.740995
0.743986
0.745907
0.746753
0.746717
0.745751
0.743965
0.741195
0.737373
0.732512
0.726676
0.720059
0.713242
0.70696
0.701615
0.697306
0.693931
0.691335
0.689825
0.690077
0.691443
0.692306
0.692773
0.692365
0.690301
0.688455
0.685752
0.68251
0.678838
0.674247
0.669335
0.665304
0.662859
0.661517
0.665351
0.680901
0.71273
0.733759
0.747922
0.752067
0.753271
0.753888
0.754098
0.754174
0.754187
0.754236
0.754248
0.75425
0.75425
0.75425
0.75425
0.75425
0.75425
0.75425
0.75425
0.75425
0.75425
0.75425
0.75425
0.75425
0.75425
0.75425
0.75425
0.75425
0.75425
0.75425
0.75425
0.75425
0.75425
0.75425
0.75425
0.75425
0.75425
0.75425
0.75425
0.75425
0.75425
0.75425
0.75425
0.75425
0.75425
0.75425
0.75425
0.75425
0.75425
0.75425
0.75425
0.75425
0.75425
0.75425
0.75425
0.75425
0.75425
0.75425
0.751737
0.74929
0.747395
0.746133
0.745789
0.746243
0.747098
0.747958
0.748568
0.748764
0.748441
0.74739
0.745606
0.74309
0.739694
0.735438
0.730458
0.724899
0.719216
0.714013
0.709678
0.706099
0.703348
0.701191
0.699545
0.699537
0.699835
0.699758
0.699183
0.697763
0.695338
0.692629
0.689473
0.685751
0.681445
0.676582
0.671596
0.668057
0.666528
0.667349
0.675038
0.696868
0.723808
0.74216
0.750114
0.752756
0.753635
0.754037
0.754194
0.754216
0.754213
0.754234
0.754249
0.75425
0.75425
0.75425
0.75425
0.75425
0.75425
0.75425
0.75425
0.75425
0.75425
0.75425
0.75425
0.75425
0.75425
0.75425
0.75425
0.75425
0.75425
0.75425
0.75425
0.75425
0.75425
0.75425
0.75425
0.75425
0.75425
0.75425
0.75425
0.75425
0.75425
0.75425
0.75425
0.75425
0.75425
0.75425
0.75425
0.75425
0.75425
0.75425
0.75425
0.75425
0.75425
0.75425
0.75425
0.75425
0.75425
0.75425
0.753956
0.753287
0.752484
0.751723
0.751131
0.750775
0.750644
0.75063
0.750587
0.750383
0.749916
0.749056
0.747505
0.745309
0.742463
0.738908
0.734793
0.730346
0.725793
0.721572
0.718089
0.715271
0.713055
0.711179
0.709572
0.708648
0.707721
0.706817
0.705217
0.702926
0.700013
0.696767
0.693316
0.689315
0.684734
0.679681
0.675044
0.672404
0.67301
0.677459
0.69057
0.714797
0.733774
0.746732
0.751666
0.75323
0.75387
0.754153
0.754227
0.754239
0.754244
0.754249
0.75425
0.75425
0.75425
0.75425
0.75425
0.75425
0.75425
0.75425
0.75425
0.75425
0.75425
0.75425
0.75425
0.75425
0.75425
0.75425
0.75425
0.75425
0.75425
0.75425
0.75425
0.75425
0.75425
0.75425
0.75425
0.75425
0.75425
0.75425
0.75425
0.75425
0.75425
0.75425
0.75425
0.75425
0.75425
0.75425
0.75425
0.75425
0.75425
0.75425
0.75425
0.75425
0.75425
0.75425
0.75425
0.75425
0.75425
0.75425
0.754206
0.754041
0.753761
0.753398
0.753001
0.752638
0.752333
0.752076
0.751798
0.751435
0.750917
0.750153
0.748986
0.747144
0.744787
0.741916
0.738608
0.735082
0.731543
0.72819
0.725286
0.722861
0.720801
0.718866
0.716981
0.715225
0.713647
0.711726
0.709348
0.706526
0.703329
0.699879
0.696418
0.692378
0.68765
0.682778
0.679236
0.678482
0.682099
0.691311
0.707898
0.728244
0.74088
0.749629
0.75262
0.753562
0.754017
0.7542
0.754238
0.754247
0.754249
0.75425
0.75425
0.75425
0.75425
0.75425
0.75425
0.75425
0.75425
0.75425
0.75425
0.75425
0.75425
0.75425
0.75425
0.75425
0.75425
0.75425
0.75425
0.75425
0.75425
0.75425
0.75425
0.75425
0.75425
0.75425
0.75425
0.75425
0.75425
0.75425
0.75425
0.75425
0.75425
0.75425
0.75425
0.75425
0.75425
0.75425
0.75425
0.75425
0.75425
0.75425
0.75425
0.75425
0.75425
0.75425
0.75425
0.75425
0.75425
0.75425
0.754241
0.754201
0.754112
0.753956
0.753735
0.753475
0.753198
0.752902
0.752571
0.752162
0.751638
0.750946
0.74998
0.748558
0.74659
0.744267
0.741638
0.73884
0.736039
0.733327
0.730763
0.728435
0.726272
0.72411
0.721882
0.719489
0.717333
0.714797
0.71198
0.708945
0.70576
0.702415
0.699186
0.69525
0.690578
0.686336
0.684581
0.686557
0.693842
0.707834
0.724236
0.73663
0.746438
0.751488
0.753139
0.753789
0.754112
0.754211
0.754239
0.754248
0.75425
0.75425
0.75425
0.75425
0.75425
0.75425
0.75425
0.75425
0.75425
0.75425
0.75425
0.75425
0.75425
0.75425
0.75425
0.75425
0.75425
0.75425
0.75425
0.75425
0.75425
0.75425
0.75425
0.75425
0.75425
0.75425
0.75425
0.75425
0.75425
0.75425
0.75425
0.75425
0.75425
0.75425
0.75425
0.75425
0.75425
0.75425
0.75425
0.75425
0.75425
0.75425
0.75425
0.75425
0.75425
0.75425
0.75425
0.75425
0.75425
0.75425
0.754248
0.754238
0.754209
0.754141
0.754026
0.753861
0.753653
0.753398
0.753079
0.752679
0.752173
0.751532
0.750676
0.749481
0.747882
0.745916
0.743737
0.741414
0.739045
0.736684
0.734324
0.731995
0.729683
0.727296
0.724783
0.722145
0.719455
0.716593
0.713639
0.710681
0.707792
0.705002
0.702088
0.69842
0.694041
0.690889
0.691806
0.696982
0.70714
0.723773
0.735471
0.743534
0.7498
0.752622
0.75356
0.753997
0.754191
0.75422
0.754235
0.754248
0.75425