/*--------------------------------*- C++ -*----------------------------------*\
  =========                 |
  \\      /  F ield         | OpenFOAM: The Open Source CFD Toolbox
   \\    /   O peration     | Website:  https://openfoam.org
    \\  /    A nd           | Version:  6
     \\/     M anipulation  |
\*---------------------------------------------------------------------------*/
FoamFile
{
    version     2.0;
    format      ascii;
    class       volScalarField;
    location    "0.005";
    object      nut;
}
// * * * * * * * * * * * * * * * * * * * * * * * * * * * * * * * * * * * * * //

dimensions      [0 2 -1 0 0 0 0];

internalField   nonuniform List<scalar> 
8000
(
0.000594201
0.000593825
0.000594686
0.000595692
0.000596349
0.000597492
0.000600723
0.000605746
0.000612934
0.000624756
0.00062973
0.000639267
0.000658967
0.000671522
0.000682347
0.00068926
0.000714398
0.000761371
0.000768815
0.00073193
0.000679733
0.000631389
0.000720206
0.000499763
0.000380039
0.000293802
0.000284768
0.000328189
0.000402873
0.000498307
0.000612642
0.000752931
0.000930853
0.0011737
0.00149069
0.00184893
0.00223577
0.00265182
0.00307624
0.00347692
0.00379409
0.00398557
0.0038231
0.00327914
0.0024597
0.00109282
0.000430451
0.000231249
0.000109952
3.37119e-05
1.86861e-05
7.16e-05
0.000360204
0.000612521
0.000628835
0.000620136
0.000612979
0.000607402
0.000603307
0.000600235
0.000598002
0.000596365
0.00059511
0.00059404
0.000593018
0.000591981
0.00059096
0.000590088
0.000589482
0.00058926
0.000589471
0.000590071
0.000590946
0.00059196
0.000592963
0.000593863
0.000594624
0.000595213
0.000595657
0.000595981
0.000596216
0.000596421
0.000596576
0.000596728
0.000596868
0.000597022
0.000597206
0.000597422
0.00059764
0.000597854
0.000598071
0.000598271
0.000598442
0.000598546
0.000598562
0.000598471
0.000598296
0.000598091
0.00059795
0.000597425
0.000593123
0.000594122
0.000595482
0.000596917
0.000598173
0.000599959
0.000603887
0.000610223
0.000619622
0.000636304
0.000644185
0.000657195
0.000678747
0.000695627
0.00070203
0.000703035
0.000725971
0.000769985
0.000784804
0.000744678
0.000701073
0.000668043
0.000624678
0.000489637
0.000393088
0.000305368
0.000287673
0.00032821
0.000403046
0.0004986
0.000614636
0.000760346
0.000947808
0.00120639
0.00154743
0.00192643
0.00232431
0.00275339
0.0031854
0.00359754
0.00391555
0.00409447
0.00392227
0.00336167
0.00251932
0.00113328
0.000425631
0.000229895
0.000105557
3.04147e-05
1.62599e-05
6.07464e-05
0.000345004
0.000609921
0.000626952
0.000618653
0.000611881
0.000606612
0.00060276
0.000599887
0.000597813
0.000596297
0.000595129
0.000594116
0.000593124
0.000592094
0.000591057
0.000590146
0.000589478
0.000589178
0.000589303
0.000589819
0.000590618
0.000591569
0.000592523
0.000593388
0.00059413
0.000594714
0.000595164
0.000595503
0.000595759
0.000595984
0.000596162
0.000596335
0.000596495
0.000596668
0.00059687
0.000597101
0.000597337
0.000597571
0.00059781
0.000598031
0.000598221
0.000598342
0.000598371
0.000598291
0.000598125
0.000597929
0.000597797
0.000597294
0.000593452
0.000594892
0.000596899
0.000599437
0.000602489
0.000606228
0.000612276
0.000621378
0.000636326
0.000666137
0.000677154
0.00069605
0.000756144
0.000748691
0.000716769
0.000721281
0.000752249
0.000826073
0.000849844
0.000790447
0.00076568
0.00070666
0.000685167
0.000552633
0.000441198
0.000339839
0.000284003
0.000327567
0.000404989
0.000502846
0.000620837
0.000779564
0.000988878
0.00128218
0.00167161
0.00210129
0.0025169
0.00296478
0.00342057
0.00384957
0.00415361
0.00432618
0.00413062
0.00353327
0.00264383
0.00121208
0.000397869
0.000199136
7.87497e-05
2.51391e-05
1.71488e-05
7.98805e-05
0.000397654
0.000616263
0.000623605
0.000615626
0.000609619
0.000604976
0.00060161
0.000599137
0.000597383
0.000596118
0.00059513
0.000594233
0.000593301
0.000592276
0.000591192
0.000590183
0.000589373
0.0005889
0.000588835
0.000589169
0.000589805
0.000590619
0.000591469
0.000592261
0.000592962
0.00059354
0.000594006
0.000594383
0.000594695
0.000594976
0.000595221
0.000595457
0.00059568
0.00059591
0.000596159
0.00059643
0.000596704
0.000596973
0.00059724
0.000597484
0.000597686
0.000597812
0.000597839
0.000597752
0.000597577
0.000597377
0.000597255
0.000596842
0.00059447
0.000597792
0.000600964
0.000605831
0.000611487
0.00061939
0.000629763
0.000642024
0.000663775
0.000695149
0.000719843
0.000730597
0.000874074
0.000752485
0.00074315
0.00074629
0.000786324
0.000937501
0.000894703
0.000878896
0.000907744
0.000769598
0.000731851
0.000586996
0.000475693
0.000380268
0.000334043
0.000348353
0.00040659
0.000510938
0.00062936
0.000817279
0.00106178
0.00140675
0.00185747
0.00237017
0.00279917
0.00327585
0.00374573
0.00420052
0.00448924
0.00463935
0.00441475
0.00376517
0.00281323
0.00129188
0.00039863
0.000145993
4.91936e-05
1.88969e-05
2.82708e-05
0.000155618
0.000501429
0.000627009
0.000621858
0.000613868
0.000608367
0.000604094
0.000600997
0.000598745
0.000597171
0.000596046
0.000595152
0.000594304
0.000593377
0.000592316
0.000591162
0.00059005
0.000589112
0.000588494
0.000588278
0.000588464
0.000588962
0.000589651
0.000590388
0.000591082
0.000591702
0.000592218
0.000592637
0.000592984
0.000593282
0.000593555
0.000593809
0.000594063
0.000594316
0.000594583
0.000594871
0.000595183
0.000595504
0.000595825
0.000596143
0.000596433
0.000596675
0.000596833
0.000596884
0.000596818
0.000596658
0.000596475
0.000596386
0.000596113
0.000596932
0.000603358
0.000609819
0.000619594
0.000629574
0.000644584
0.000660238
0.000672638
0.000688609
0.000713765
0.000705985
0.000736097
0.000761217
0.000768147
0.000755448
0.000764945
0.000843726
0.000959253
0.00106893
0.00105046
0.00101513
0.000854233
0.000767924
0.000604898
0.000506505
0.000418638
0.000370262
0.00034565
0.000407938
0.000507713
0.000657089
0.000889722
0.00118494
0.00158524
0.00209632
0.00267914
0.00314119
0.00366231
0.00415587
0.00462346
0.00489472
0.00501925
0.00475149
0.00403256
0.00301381
0.00139213
0.000401686
0.00011273
3.38343e-05
2.07631e-05
6.30904e-05
0.000287918
0.000583352
0.0006341
0.000621255
0.00061311
0.000607787
0.000603632
0.000600624
0.000598452
0.000596941
0.000595857
0.000594981
0.000594129
0.000593184
0.000592089
0.000590894
0.00058973
0.000588728
0.000588037
0.000587744
0.000587851
0.000588273
0.000588887
0.00058955
0.000590171
0.000590718
0.000591163
0.000591516
0.000591801
0.000592043
0.000592266
0.000592482
0.000592709
0.000592949
0.000593213
0.000593504
0.000593824
0.000594164
0.000594513
0.000594858
0.000595177
0.000595442
0.000595619
0.000595681
0.000595623
0.000595468
0.000595293
0.000595232
0.000595098
0.000603207
0.000617958
0.00063114
0.000646835
0.000666077
0.000681995
0.000697715
0.000709787
0.000720429
0.000736475
0.000746347
0.000757365
0.000776703
0.000770033
0.000758542
0.000787152
0.000931549
0.00107686
0.00142312
0.00128463
0.00124044
0.000879529
0.000763474
0.000625451
0.000523463
0.000439739
0.000393096
0.000368154
0.000441779
0.000525455
0.000701875
0.000969402
0.00136819
0.00181159
0.00240504
0.00303553
0.00356427
0.00411271
0.0046219
0.00510019
0.005356
0.00544935
0.00507546
0.00430853
0.0032311
0.00151334
0.000423823
0.00010329
3.1897e-05
3.47591e-05
0.000142119
0.000429423
0.000627416
0.000637423
0.000620845
0.000612549
0.000607249
0.000603105
0.000600118
0.000597975
0.000596481
0.0005954
0.000594515
0.00059365
0.000592691
0.000591586
0.000590383
0.000589208
0.000588188
0.000587471
0.00058715
0.000587226
0.00058762
0.000588205
0.000588838
0.000589428
0.000589939
0.000590345
0.000590657
0.000590902
0.000591104
0.00059129
0.000591474
0.000591674
0.000591893
0.000592139
0.000592414
0.000592718
0.000593046
0.000593385
0.00059372
0.000594025
0.000594271
0.000594423
0.000594457
0.000594367
0.000594184
0.000593988
0.000593932
0.000593905
0.000616195
0.000645207
0.000667501
0.000689879
0.00071012
0.000725196
0.000732737
0.000741254
0.00074203
0.000747276
0.000742519
0.000750253
0.00075089
0.000758464
0.000763559
0.000823467
0.00093182
0.00140835
0.00180477
0.00150516
0.00118971
0.000890999
0.000715606
0.000627069
0.000509965
0.000439482
0.000396707
0.00038748
0.000436192
0.000556028
0.000763584
0.0010924
0.0015445
0.00210138
0.00278509
0.00345912
0.00403703
0.0046148
0.00513726
0.00560089
0.00586742
0.00589554
0.00545597
0.00458893
0.00348199
0.00164144
0.000468237
0.000111925
3.72642e-05
6.10081e-05
0.000246359
0.00051851
0.000646615
0.000638596
0.000620288
0.000611867
0.000606547
0.000602388
0.000599412
0.000597288
0.000595803
0.000594719
0.000593824
0.000592951
0.000591993
0.000590896
0.000589707
0.000588541
0.000587525
0.000586805
0.000586476
0.000586545
0.000586933
0.000587516
0.000588148
0.000588734
0.000589239
0.000589636
0.000589937
0.000590169
0.000590359
0.000590533
0.000590707
0.000590896
0.000591104
0.000591337
0.000591595
0.000591879
0.000592183
0.000592495
0.000592798
0.000593066
0.000593267
0.000593369
0.000593348
0.000593203
0.000592968
0.000592731
0.000592661
0.000592698
0.000637861
0.000681736
0.00070665
0.00072542
0.000740607
0.000746262
0.000752216
0.000766282
0.000751065
0.00074957
0.00076049
0.000755707
0.000739875
0.00074606
0.000757549
0.000798023
0.000923387
0.00124531
0.00216376
0.00159486
0.00123216
0.000957441
0.000693016
0.000622939
0.000531442
0.000444376
0.000402331
0.000399287
0.00046111
0.000616334
0.000858848
0.00127969
0.00180109
0.00243948
0.00321133
0.00395147
0.00455237
0.00516391
0.00567544
0.00614345
0.00642166
0.00634817
0.00582827
0.00486933
0.00364336
0.00175536
0.000524857
0.000134503
4.46774e-05
8.63559e-05
0.000339009
0.000553945
0.00065479
0.000638994
0.000619666
0.000611101
0.000605753
0.00060158
0.000598618
0.000596514
0.000595038
0.000593954
0.000593055
0.000592183
0.000591237
0.000590158
0.00058899
0.00058784
0.000586834
0.000586116
0.000585785
0.000585853
0.000586243
0.00058683
0.000587469
0.000588063
0.000588574
0.000588975
0.00058928
0.000589515
0.000589708
0.000589886
0.000590062
0.000590252
0.000590458
0.000590684
0.000590931
0.000591198
0.00059148
0.000591764
0.000592033
0.000592259
0.000592412
0.00059246
0.000592379
0.000592174
0.000591882
0.000591597
0.000591501
0.000591567
0.000664252
0.000709357
0.000725559
0.000733587
0.000738868
0.000735383
0.000743224
0.000754805
0.000736654
0.00073684
0.000723517
0.000712173
0.000722818
0.000697041
0.000696336
0.000741654
0.000853432
0.00131211
0.0018628
0.00156897
0.00111146
0.000792953
0.000706706
0.000625898
0.00051364
0.000441323
0.000408208
0.000415347
0.000490988
0.000704502
0.000976298
0.00150479
0.00211915
0.00282457
0.00367157
0.00448378
0.00510493
0.00577257
0.00624538
0.0067043
0.00693856
0.00678527
0.00620072
0.00514673
0.00397985
0.0018315
0.000534767
0.000132311
4.87645e-05
0.000105198
0.000377209
0.000582504
0.000660644
0.000639571
0.000619202
0.00061039
0.000604997
0.000600815
0.000597869
0.000595785
0.00059432
0.000593241
0.000592343
0.000591478
0.000590546
0.000589487
0.00058834
0.000587205
0.000586206
0.00058549
0.000585155
0.000585219
0.00058561
0.000586199
0.000586843
0.000587444
0.00058796
0.000588366
0.000588676
0.000588917
0.000589117
0.000589301
0.000589484
0.000589677
0.000589884
0.000590107
0.000590346
0.0005906
0.000590863
0.000591124
0.000591362
0.000591552
0.000591661
0.000591658
0.000591523
0.000591262
0.000590916
0.000590585
0.000590458
0.000590528
0.000661983
0.000690692
0.000689964
0.000682974
0.000683886
0.000675543
0.000685849
0.000689755
0.000708805
0.000681191
0.000681423
0.000703009
0.000678649
0.000645585
0.000632025
0.000699414
0.000754988
0.00110312
0.00209208
0.00155601
0.0010428
0.000848559
0.000667263
0.000585369
0.000498363
0.00043957
0.000420458
0.000441553
0.000546518
0.000830712
0.0011648
0.00173873
0.00254
0.00324902
0.00415005
0.00500872
0.00567286
0.00645783
0.0068414
0.00726526
0.00744378
0.00726616
0.00660035
0.00542071
0.00400058
0.001875
0.000616772
0.000144181
4.83544e-05
0.000108253
0.000518406
0.000581038
0.000664894
0.000641033
0.000619189
0.000609873
0.000604368
0.000600172
0.000597241
0.000595177
0.000593724
0.000592652
0.00059176
0.000590905
0.000589987
0.000588945
0.000587814
0.000586689
0.000585694
0.000584975
0.000584633
0.00058469
0.000585075
0.000585662
0.000586305
0.000586905
0.000587422
0.000587829
0.000588141
0.000588385
0.000588589
0.000588777
0.000588962
0.000589158
0.000589364
0.000589583
0.000589815
0.000590057
0.000590304
0.000590544
0.000590756
0.000590914
0.000590985
0.000590939
0.000590757
0.000590446
0.000590052
0.000589678
0.00058952
0.000589581
0.00057783
0.000550317
0.000542907
0.000540909
0.000553797
0.000559006
0.000586343
0.000589454
0.000599324
0.000598339
0.000622052
0.000594995
0.000597952
0.000576952
0.000570705
0.000595402
0.000660656
0.000838256
0.00161177
0.00130089
0.000916294
0.000740968
0.000643607
0.000548966
0.000475413
0.000442593
0.00044098
0.000483029
0.000629147
0.000942629
0.0013812
0.00202501
0.00285427
0.0037167
0.00463368
0.00552043
0.00620651
0.00712884
0.0074398
0.0078349
0.00796349
0.00775776
0.00704209
0.00568412
0.00413277
0.00183549
0.000738245
0.000185353
4.5688e-05
9.00616e-05
0.000357055
0.000613948
0.00067149
0.000644165
0.000619922
0.000609658
0.000603896
0.000599669
0.000596751
0.000594706
0.000593265
0.000592202
0.000591319
0.000590474
0.000589569
0.00058854
0.00058742
0.0005863
0.000585304
0.000584579
0.000584228
0.000584275
0.000584651
0.000585229
0.000585865
0.00058646
0.000586972
0.000587375
0.000587684
0.000587927
0.00058813
0.000588318
0.000588503
0.000588696
0.000588899
0.000589113
0.000589337
0.000589569
0.000589802
0.000590024
0.000590213
0.000590344
0.000590382
0.000590299
0.000590077
0.000589724
0.000589289
0.000588878
0.000588689
0.000588736
0.000378162
0.000348775
0.000362282
0.00038343
0.000425006
0.000434856
0.000455266
0.000477869
0.000478315
0.00049235
0.000495104
0.000495169
0.000498157
0.00047868
0.000487027
0.000512186
0.00059265
0.000731452
0.0012277
0.00121717
0.000812185
0.000690563
0.000622488
0.000548226
0.000483038
0.000458658
0.000480211
0.000586712
0.000728904
0.00111056
0.00162894
0.00237473
0.00327751
0.00419612
0.00512176
0.00606293
0.00673301
0.00768361
0.0080436
0.00843377
0.0084915
0.00814963
0.00746589
0.00593664
0.00423486
0.00180103
0.000788322
0.00024071
4.58153e-05
0.000101003
0.000436529
0.000621993
0.000677711
0.000648994
0.000621555
0.00060987
0.000603585
0.000599289
0.00059638
0.000594352
0.000592924
0.000591872
0.000590998
0.000590163
0.00058927
0.000588249
0.000587135
0.000586016
0.000585017
0.000584285
0.000583924
0.000583959
0.000584324
0.000584891
0.000585518
0.000586104
0.000586607
0.000587003
0.000587306
0.000587543
0.000587743
0.000587927
0.000588108
0.000588297
0.000588495
0.000588702
0.000588918
0.00058914
0.000589361
0.000589567
0.000589738
0.000589845
0.000589857
0.000589744
0.000589489
0.000589102
0.000588632
0.00058819
0.000587976
0.000588007
0.000240128
0.000280163
0.000298468
0.00031157
0.000330039
0.000344843
0.000351214
0.000365992
0.000381889
0.000390835
0.000407617
0.000412184
0.000407088
0.000416538
0.000413485
0.000439586
0.000533125
0.000662921
0.00117631
0.000938828
0.00073125
0.000645876
0.000595044
0.000528742
0.000496231
0.00048553
0.000512877
0.00066434
0.000844112
0.00130811
0.00192691
0.00275099
0.00372056
0.00473827
0.00571206
0.00662427
0.00729698
0.00823419
0.00863564
0.00906061
0.00905038
0.00853921
0.0076784
0.00616109
0.00430507
0.00174731
0.000642667
0.000177374
4.7458e-05
0.000105832
0.000408346
0.000647354
0.000684127
0.000653984
0.000623929
0.000610454
0.000603419
0.000599003
0.000596098
0.000594086
0.000592671
0.000591629
0.000590766
0.00058994
0.000589055
0.00058804
0.00058693
0.00058581
0.000584807
0.000584067
0.000583696
0.00058372
0.000584074
0.00058463
0.000585246
0.000585821
0.000586315
0.000586702
0.000586997
0.000587228
0.000587422
0.000587601
0.000587777
0.000587961
0.000588152
0.000588353
0.000588561
0.000588775
0.000588985
0.000589179
0.000589335
0.000589424
0.000589414
0.000589277
0.000588997
0.000588583
0.000588087
0.00058762
0.000587386
0.000587404
0.000207751
0.000216606
0.000234471
0.000259665
0.000267334
0.000268067
0.000287542
0.000308867
0.00031541
0.000338835
0.000339979
0.000347791
0.000350951
0.000351414
0.000357176
0.000386907
0.000462596
0.00056751
0.00092508
0.000775803
0.000631097
0.000601913
0.000572817
0.000533505
0.000509248
0.00051503
0.00058213
0.000700556
0.000992367
0.00153728
0.00226501
0.00317036
0.00417335
0.00533925
0.00636737
0.00720392
0.007951
0.00884487
0.00925024
0.00970819
0.00966819
0.00895463
0.00795762
0.00639764
0.00433421
0.00167833
0.000503403
0.000108653
5.16351e-05
0.000124328
0.00043264
0.000663368
0.000688027
0.000656682
0.000626609
0.000610991
0.00060332
0.000598776
0.000595877
0.00059388
0.000592477
0.000591446
0.000590593
0.000589775
0.000588896
0.000587887
0.000586777
0.000585657
0.000584649
0.000583903
0.000583523
0.000583538
0.000583881
0.000584427
0.000585032
0.000585598
0.000586082
0.000586461
0.000586749
0.000586973
0.000587161
0.000587335
0.000587505
0.000587683
0.000587869
0.000588064
0.000588266
0.000588472
0.000588675
0.000588859
0.000589003
0.000589077
0.000589052
0.000588897
0.000588597
0.000588164
0.000587649
0.000587164
0.000586913
0.000586922
0.00020869
0.000166355
0.000191046
0.000213233
0.000234791
0.000236462
0.000260674
0.000264975
0.000271249
0.000295095
0.00028687
0.000296082
0.00029879
0.000302086
0.000306008
0.000343998
0.000407493
0.000531756
0.000651971
0.000664006
0.000584714
0.000573118
0.00055695
0.000539197
0.000525749
0.000555229
0.000625198
0.000806442
0.00117287
0.00179868
0.00264811
0.00357784
0.00466783
0.00599397
0.00707271
0.00778468
0.00867172
0.00948749
0.00987072
0.0102225
0.0102657
0.00931333
0.00825251
0.00688493
0.00430385
0.00150349
0.000436464
9.45101e-05
5.61538e-05
0.000142755
0.000455844
0.000676855
0.00069138
0.000657433
0.000628427
0.000611571
0.000603126
0.000598582
0.000595699
0.000593717
0.000592325
0.000591304
0.000590459
0.000589649
0.000588775
0.00058777
0.00058666
0.000585539
0.000584529
0.000583776
0.00058339
0.000583397
0.000583732
0.000584269
0.000584865
0.000585422
0.000585899
0.00058627
0.000586551
0.000586769
0.000586952
0.00058712
0.000587286
0.000587459
0.00058764
0.000587829
0.000588027
0.000588228
0.000588424
0.000588601
0.000588736
0.0005888
0.000588762
0.000588595
0.000588282
0.000587835
0.000587306
0.000586808
0.000586546
0.000586547
0.000169594
0.000171092
0.000196129
0.000197336
0.000215652
0.000226714
0.000243402
0.000245681
0.00025347
0.000260544
0.000239814
0.000250086
0.000258756
0.000265619
0.00027892
0.000307444
0.000361567
0.000466229
0.000557639
0.00058127
0.000543008
0.000537043
0.000538625
0.000539382
0.000550147
0.000589396
0.000701753
0.000948773
0.00142559
0.0021544
0.00319608
0.0041414
0.00534623
0.00672147
0.00780709
0.00850661
0.00957788
0.0102078
0.0106085
0.0107504
0.0107047
0.00974604
0.00853352
0.00668754
0.00418206
0.00127613
0.000346946
7.6287e-05
6.61149e-05
0.000177297
0.000493032
0.000691817
0.000695351
0.000658964
0.00062959
0.000611496
0.000602876
0.000598388
0.00059553
0.000593564
0.000592185
0.000591175
0.000590339
0.000589536
0.000588667
0.000587664
0.000586555
0.000585433
0.000584419
0.00058366
0.000583268
0.000583268
0.000583595
0.000584123
0.00058471
0.000585259
0.000585728
0.000586092
0.000586366
0.000586578
0.000586756
0.000586919
0.00058708
0.000587247
0.000587423
0.000587608
0.000587801
0.000587998
0.000588189
0.000588359
0.000588486
0.000588541
0.000588493
0.000588314
0.00058799
0.000587532
0.000586993
0.000586485
0.000586213
0.000586207
0.000102861
0.000170934
0.000199748
0.00021135
0.000211411
0.000229686
0.000242997
0.000247212
0.000256847
0.000253178
0.00024982
0.000250211
0.000264139
0.000264371
0.000271786
0.000287638
0.000329122
0.000413065
0.000489904
0.00051848
0.000503598
0.000504046
0.00052383
0.000537925
0.000557449
0.000640036
0.000818069
0.00115036
0.00178962
0.002643
0.00376025
0.00488955
0.00616908
0.00751782
0.00858124
0.00934051
0.0107112
0.0109837
0.0113777
0.0113824
0.0111308
0.010055
0.00872023
0.00681454
0.00396744
0.00107454
0.000280756
6.48117e-05
6.97002e-05
0.00019942
0.000521886
0.000698221
0.000690591
0.000654134
0.000627197
0.000609852
0.000602475
0.000598197
0.000595384
0.000593438
0.000592071
0.00059107
0.000590243
0.000589445
0.000588581
0.00058758
0.000586472
0.000585348
0.000584331
0.000583569
0.000583172
0.000583166
0.000583487
0.000584008
0.000584588
0.00058513
0.000585592
0.000585951
0.000586218
0.000586426
0.000586599
0.000586758
0.000586915
0.000587078
0.00058725
0.000587431
0.000587621
0.000587813
0.000588001
0.000588166
0.000588287
0.000588335
0.000588279
0.000588093
0.000587761
0.000587296
0.00058675
0.000586235
0.000585957
0.000585947
5.27352e-05
0.000155731
0.00019371
0.000215717
0.000222097
0.00024425
0.000253211
0.000263473
0.000275865
0.000288347
0.000288713
0.000309257
0.000316074
0.000332815
0.000314237
0.000310571
0.000337453
0.000382627
0.000456365
0.000472906
0.000471145
0.000496973
0.000505512
0.000531696
0.000583253
0.000718312
0.00098422
0.00146871
0.00225573
0.00325866
0.00447618
0.00567735
0.00702439
0.00819643
0.00944126
0.0101801
0.0113007
0.0117129
0.0119925
0.0119626
0.0115425
0.0104409
0.00885782
0.00682813
0.00361661
0.000843733
0.000193463
5.29267e-05
6.66924e-05
0.000206391
0.000535893
0.000692779
0.000677831
0.000643869
0.000620269
0.000608217
0.000602103
0.000598039
0.000595271
0.000593343
0.000591988
0.000590996
0.000590175
0.000589382
0.000588521
0.000587522
0.000586414
0.000585289
0.000584271
0.000583507
0.000583107
0.000583097
0.000583415
0.000583932
0.000584508
0.000585045
0.000585503
0.000585857
0.000586121
0.000586326
0.000586496
0.000586652
0.000586806
0.000586967
0.000587136
0.000587315
0.000587501
0.000587692
0.000587876
0.000588039
0.000588156
0.000588199
0.000588139
0.000587947
0.000587612
0.000587143
0.000586592
0.000586073
0.000585792
0.000585779
6.18365e-05
0.000122578
0.000171073
0.000203653
0.000225164
0.000249369
0.000270826
0.000290952
0.000315464
0.000350575
0.00039259
0.000460241
0.000530161
0.000563634
0.000482585
0.000427336
0.000395741
0.00039486
0.000423521
0.000449753
0.000448946
0.000469904
0.000495531
0.000538761
0.000629046
0.000847403
0.00124973
0.00194797
0.00287529
0.00398275
0.00528031
0.00647319
0.0078612
0.00901091
0.0101884
0.0110007
0.0119256
0.0123079
0.0126253
0.0124248
0.0119035
0.0109607
0.00892755
0.00670701
0.00316887
0.000682607
0.0001388
4.32689e-05
5.77564e-05
0.000199056
0.000537172
0.000682947
0.000666055
0.000636123
0.000616562
0.00060736
0.00060183
0.000597909
0.000595184
0.000593274
0.00059193
0.000590945
0.00059013
0.00058934
0.000588482
0.000587484
0.000586376
0.000585252
0.000584233
0.000583468
0.000583066
0.000583055
0.00058337
0.000583885
0.000584458
0.000584993
0.000585448
0.000585799
0.000586061
0.000586263
0.000586431
0.000586586
0.000586738
0.000586897
0.000587064
0.000587241
0.000587426
0.000587615
0.000587798
0.000587959
0.000588073
0.000588113
0.00058805
0.000587856
0.000587517
0.000587046
0.000586494
0.000585972
0.000585689
0.000585674
0.000139286
8.63899e-05
0.000134974
0.000178229
0.000217436
0.000253668
0.000287853
0.000322483
0.000370778
0.000452445
0.000576404
0.000742694
0.000905666
0.000960024
0.000855339
0.00072071
0.000574433
0.000489864
0.000461202
0.000469006
0.00046275
0.000492861
0.0005142
0.000576485
0.000720492
0.00106171
0.00165187
0.00250245
0.00360039
0.00478859
0.00607999
0.00733332
0.00870399
0.00979926
0.0109638
0.0117859
0.0125644
0.0129141
0.0131404
0.0127909
0.0121833
0.0114471
0.00888057
0.00651005
0.00272142
0.000545505
0.000107132
3.61044e-05
5.17177e-05
0.000197443
0.000541606
0.000676747
0.000658937
0.000632163
0.000615185
0.000606911
0.000601616
0.0005978
0.000595113
0.000593221
0.000591889
0.000590911
0.0005901
0.000589314
0.000588458
0.000587461
0.000586354
0.00058523
0.00058421
0.000583444
0.000583042
0.00058303
0.000583344
0.000583858
0.000584429
0.000584962
0.000585416
0.000585765
0.000586026
0.000586226
0.000586394
0.000586547
0.000586698
0.000586855
0.000587022
0.000587198
0.000587382
0.00058757
0.000587752
0.00058791
0.000588023
0.000588062
0.000587996
0.0005878
0.000587461
0.000586988
0.000586435
0.000585912
0.000585627
0.000585611
0.000256977
7.14663e-05
0.000100573
0.000144044
0.000195183
0.000245637
0.000293727
0.000351529
0.000443278
0.000600458
0.000821247
0.00108149
0.00131145
0.00142041
0.00135608
0.0011794
0.000933857
0.000751181
0.000606246
0.000549519
0.000548848
0.000552525
0.000588505
0.000687362
0.000924736
0.00144435
0.00228814
0.00320791
0.00435264
0.00562084
0.00698983
0.00819996
0.009628
0.0106217
0.0118022
0.0124954
0.0132275
0.0132783
0.0135804
0.0130765
0.0124249
0.0112722
0.00873388
0.00616101
0.00241686
0.000440175
8.76496e-05
3.17542e-05
5.2262e-05
0.000212082
0.000556904
0.000676626
0.000655928
0.000630404
0.000614625
0.000606636
0.00060144
0.000597704
0.000595053
0.000593179
0.000591858
0.000590887
0.000590081
0.000589297
0.000588444
0.000587448
0.000586342
0.000585218
0.000584198
0.000583432
0.000583029
0.000583016
0.00058333
0.000583843
0.000584414
0.000584946
0.000585399
0.000585747
0.000586007
0.000586207
0.000586373
0.000586525
0.000586676
0.000586833
0.000586998
0.000587174
0.000587357
0.000587545
0.000587726
0.000587883
0.000587995
0.000588032
0.000587966
0.000587769
0.000587428
0.000586955
0.000586401
0.000585878
0.000585593
0.000585576
0.000364504
0.000101755
9.2771e-05
0.000116991
0.000163469
0.000222174
0.000288296
0.000383497
0.000537955
0.000772377
0.00105418
0.00134694
0.00159983
0.00176638
0.00180455
0.00167544
0.00142049
0.00115232
0.000919721
0.000827269
0.000810362
0.000753194
0.000798699
0.000938216
0.00133706
0.00202005
0.00300075
0.00401152
0.00516396
0.0064313
0.00785571
0.0090335
0.0105069
0.0114288
0.0125077
0.0130935
0.0138712
0.0139795
0.0139465
0.0133242
0.0125746
0.0111559
0.00856183
0.00565978
0.00194157
0.000348324
7.28289e-05
2.97296e-05
5.96714e-05
0.000246861
0.00058646
0.000681573
0.000655782
0.000629601
0.000614252
0.00060644
0.000601311
0.000597618
0.000594999
0.000593143
0.000591833
0.000590869
0.000590068
0.000589287
0.000588436
0.000587442
0.000586336
0.000585212
0.000584192
0.000583426
0.000583023
0.00058301
0.000583324
0.000583837
0.000584407
0.000584939
0.000585391
0.000585739
0.000585998
0.000586197
0.000586363
0.000586515
0.000586665
0.000586821
0.000586986
0.000587162
0.000587345
0.000587532
0.000587712
0.000587869
0.00058798
0.000588017
0.000587949
0.000587752
0.000587411
0.000586938
0.000586383
0.00058586
0.000585575
0.000585557
0.000439377
0.000195204
0.000132337
0.000120589
0.000143407
0.00019946
0.000287288
0.000428333
0.000640991
0.000914179
0.00120475
0.00148761
0.00174513
0.00196275
0.00210358
0.00209084
0.00191346
0.00165039
0.00138974
0.0012664
0.00118633
0.00113036
0.0011709
0.00136564
0.00183251
0.00272672
0.00386821
0.00483712
0.00600214
0.00721928
0.00860483
0.0100065
0.0112259
0.0121324
0.0131399
0.0136457
0.0141613
0.0143716
0.0142093
0.0135063
0.0126349
0.0110586
0.00830134
0.0050259
0.00151446
0.000275345
6.10896e-05
2.92602e-05
7.20055e-05
0.000299066
0.000624785
0.000688969
0.000656169
0.000629121
0.000614022
0.000606327
0.000601269
0.000597544
0.000594948
0.00059311
0.000591812
0.000590855
0.000590058
0.000589281
0.000588431
0.000587439
0.000586334
0.00058521
0.00058419
0.000583424
0.000583021
0.000583009
0.000583323
0.000583835
0.000584406
0.000584937
0.000585389
0.000585737
0.000585995
0.000586194
0.000586359
0.000586511
0.000586661
0.000586817
0.000586981
0.000587156
0.000587339
0.000587526
0.000587706
0.000587863
0.000587973
0.000588009
0.000587942
0.000587744
0.000587403
0.000586929
0.000586375
0.000585852
0.000585566
0.000585548
0.000475963
0.000311641
0.000220326
0.000169138
0.000158624
0.000204587
0.000312441
0.000489477
0.000728714
0.000995701
0.00126349
0.00152718
0.0017899
0.00204632
0.00226976
0.00237998
0.00232919
0.00214856
0.0019304
0.00179706
0.00171255
0.00165023
0.00172343
0.0019774
0.002518
0.00352688
0.00468259
0.00568229
0.00682841
0.00801421
0.00933333
0.0113942
0.0119105
0.0128373
0.0136803
0.0141335
0.014709
0.0146523
0.0143729
0.0135919
0.0126147
0.0108943
0.0079129
0.00430899
0.00115462
0.000216799
5.1581e-05
2.98066e-05
8.84066e-05
0.000355148
0.000657689
0.000691612
0.000655268
0.00062869
0.000614061
0.000606497
0.00060129
0.000597474
0.000594897
0.000593077
0.000591792
0.000590843
0.00059005
0.000589276
0.000588429
0.000587438
0.000586333
0.00058521
0.00058419
0.000583424
0.000583021
0.000583009
0.000583323
0.000583836
0.000584407
0.000584938
0.00058539
0.000585737
0.000585995
0.000586194
0.000586359
0.00058651
0.00058666
0.000586816
0.00058698
0.000587155
0.000587338
0.000587524
0.000587704
0.00058786
0.00058797
0.000588006
0.000587938
0.000587741
0.0005874
0.000586926
0.000586372
0.000585849
0.000585563
0.000585544
0.000471043
0.000371831
0.000303031
0.000246066
0.000217273
0.0002565
0.000378411
0.000568634
0.000798352
0.00103665
0.0012724
0.00151715
0.00178226
0.00206572
0.00234673
0.00256163
0.00264118
0.00258318
0.00245174
0.00235309
0.00228371
0.00224347
0.00237015
0.00268458
0.00330841
0.00436264
0.00544412
0.00643877
0.0075771
0.00873769
0.0100311
0.011393
0.012499
0.0134523
0.014143
0.0145529
0.0148981
0.0148479
0.014462
0.013588
0.0125019
0.0106377
0.00736792
0.00349856
0.000886701
0.000171491
4.39717e-05
3.13949e-05
0.000110054
0.000409752
0.000676384
0.000687707
0.0006532
0.000628221
0.000614219
0.000606579
0.000601058
0.000597374
0.000594843
0.000593044
0.000591772
0.00059083
0.000590043
0.000589272
0.000588427
0.000587438
0.000586334
0.000585211
0.000584191
0.000583425
0.000583022
0.000583011
0.000583325
0.000583839
0.000584409
0.000584941
0.000585392
0.000585739
0.000585997
0.000586196
0.000586361
0.000586512
0.000586661
0.000586817
0.000586981
0.000587156
0.000587339
0.000587525
0.000587704
0.00058786
0.00058797
0.000588006
0.000587938
0.00058774
0.000587399
0.000586926
0.000586371
0.000585849
0.000585563
0.000585544
0.000422336
0.000352026
0.000322932
0.00029907
0.000293237
0.000347527
0.000481337
0.000666265
0.000869443
0.00107311
0.0012737
0.00149457
0.00175392
0.00205231
0.00237203
0.00266526
0.00285833