/*--------------------------------*- C++ -*----------------------------------*\
  =========                 |
  \\      /  F ield         | OpenFOAM: The Open Source CFD Toolbox
   \\    /   O peration     | Website:  https://openfoam.org
    \\  /    A nd           | Version:  6
     \\/     M anipulation  |
\*---------------------------------------------------------------------------*/
FoamFile
{
    version     2.0;
    format      ascii;
    class       volScalarField;
    location    "0.005";
    object      O;
}
// * * * * * * * * * * * * * * * * * * * * * * * * * * * * * * * * * * * * * //

dimensions      [0 0 0 0 0 0 0];

internalField   nonuniform List<scalar> 
8000
(
6.96058e-22
2.18611e-17
1.44435e-16
1.55514e-15
2.45613e-14
4.08852e-13
4.76219e-12
3.08301e-11
1.15689e-10
3.08213e-10
6.40871e-10
1.12205e-09
1.80468e-09
2.45955e-09
2.50231e-09
2.42576e-09
3.34344e-09
7.67191e-09
2.67392e-08
1.58701e-07
1.5618e-06
2.2856e-05
0.000220893
0.000278316
0.00052045
0.000518557
0.000377583
0.000355611
0.000405894
0.00043762
0.000399473
0.000285921
0.000149304
6.69493e-05
2.80635e-05
1.46507e-05
8.47617e-06
5.65868e-06
4.0238e-06
3.16762e-06
3.04222e-06
3.08302e-06
3.53472e-06
7.82763e-06
7.02652e-05
0.000677229
0.000432661
0.000253369
0.000108729
9.31969e-06
7.89688e-07
9.17425e-08
1.10537e-09
0
0
0
0
0
0
0
0
0
0
0
0
0
0
0
0
0
0
0
0
0
0
0
0
0
0
0
0
0
0
0
0
0
0
0
0
0
0
0
0
0
0
0
0
0
0
0
1.13502e-20
2.10423e-16
5.82863e-16
5.46422e-15
5.9841e-14
9.40007e-13
1.22864e-11
9.76312e-11
4.54027e-10
1.28417e-09
2.60467e-09
4.12298e-09
6.08414e-09
8.99159e-09
8.28245e-09
5.99463e-09
6.84247e-09
1.45848e-08
4.12772e-08
1.93333e-07
1.84568e-06
4.39481e-05
0.000249942
0.000570839
0.000592864
0.000442792
0.00024035
0.000264889
0.000377115
0.000437467
0.000408465
0.000292113
0.000150073
6.59447e-05
2.73244e-05
1.48559e-05
8.31224e-06
5.74843e-06
3.93432e-06
3.48001e-06
3.13944e-06
2.99355e-06
3.44489e-06
7.63221e-06
6.67686e-05
0.000649044
0.000443648
0.000211194
0.000115603
8.90863e-06
8.62245e-07
1.35674e-07
5.10712e-10
0
0
0
0
0
0
0
0
0
0
0
0
0
0
0
0
0
0
0
0
0
0
0
0
0
0
0
0
0
0
0
0
0
0
0
0
0
0
0
0
0
0
0
0
0
0
0
8.36297e-17
1.02202e-10
8.57871e-17
2.04131e-10
2.94931e-13
3.56719e-12
4.29624e-11
4.66866e-10
1.08438e-09
1.15437e-08
2.52371e-08
3.49395e-08
3.95117e-08
6.15594e-08
4.32074e-09
2.86738e-09
2.24783e-08
5.16076e-08
1.09697e-07
2.93108e-07
1.48613e-06
1.54612e-05
0.000273816
0.000229315
0.00041342
0.000490049
4.43995e-05
0.000208196
0.000398785
0.000474068
0.000437837
0.000303394
0.00014979
6.3483e-05
2.53662e-05
1.33255e-05
8.01509e-06
5.41658e-06
3.90495e-06
3.27212e-06
2.95775e-06
2.96917e-06
3.3905e-06
7.42883e-06
5.63749e-05
0.000606626
0.000279919
0.000136837
6.58022e-07
4.78286e-06
6.49657e-07
8.10333e-08
1.33488e-10
0
0
0
0
0
0
0
0
0
0
0
0
0
0
0
0
0
0
0
0
0
0
0
0
0
0
0
0
0
0
0
0
0
0
0
0
0
0
0
0
0
0
0
0
0
0
0
1.16818e-20
3.4874e-15
1.17417e-13
1.17383e-12
5.94736e-12
1.89439e-11
1.21552e-10
1.15026e-09
1.14591e-08
4.14315e-09
3.71148e-07
4.31642e-07
3.79493e-07
6.09253e-09
4.32212e-08
3.26321e-08
6.03822e-08
2.98831e-07
1.47359e-08
7.24081e-07
2.03679e-06
4.89858e-07
6.8221e-05
0.000121334
0.00029444
0.000521792
0.000518266
0.000471452
0.000480635
0.000505001
0.000444994
0.000299696
0.000143931
5.97645e-05
2.15208e-05
1.10532e-05
7.30779e-06
4.95505e-06
3.58935e-06
3.1746e-06
2.73377e-06
2.72304e-06
3.11412e-06
6.85935e-06
5.11073e-05
0.000616671
0.000321272
5.63242e-05
1.33961e-05
2.03202e-06
3.36697e-07
3.08078e-08
7.93841e-12
0
0
0
0
0
0
0
0
0
0
0
0
0
0
0
0
0
0
0
0
0
0
0
0
0
0
0
0
0
0
0
0
0
0
0
0
0
0
0
0
0
0
0
0
0
0
0
1.66171e-18
4.22793e-15
4.70847e-10
1.50961e-11
1.52629e-09
1.17992e-10
3.00828e-10
6.29906e-10
1.97878e-08
6.8166e-09
4.32856e-07
2.21634e-07
4.9988e-08
2.33042e-07
7.22642e-08
4.56076e-09
2.12203e-07
2.74286e-08
1.83573e-06
2.39773e-06
3.67944e-07
7.31971e-07
3.97663e-05
2.85667e-05
0.000128545
0.00051297
0.000639863
0.000155202
0.000318314
0.000480852
0.00044974
0.000284728
0.000135428
5.1832e-05
1.79863e-05
9.19295e-06
6.4243e-06
4.61893e-06
3.81316e-06
2.85818e-06
2.48448e-06
2.46997e-06
3.05232e-06
6.3685e-06
4.59722e-05
0.000609348
0.000262144
2.8887e-05
5.08312e-06
9.60233e-07
1.7821e-07
7.1332e-09
0
0
0
0
0
0
0
0
0
0
0
0
0
0
0
0
0
0
0
0
0
0
0
0
0
0
0
0
0
0
0
0
0
0
0
0
0
0
0
0
0
0
0
0
0
0
0
0
6.05817e-17
7.36715e-16
4.88501e-12
3.77286e-10
6.91555e-10
5.83696e-10
5.85617e-10
1.58084e-09
8.40869e-09
6.65761e-08
3.81212e-07
4.07087e-07
1.93929e-07
7.92897e-08
7.14406e-08
1.7703e-07
8.37857e-07
3.07819e-07
1.21823e-05
1.62994e-06
1.29434e-05
1.74927e-06
4.45983e-05
3.73949e-05
0.00027278
0.000539707
0.000631827
0.00044778
0.000537743
0.000603874
0.000503383
0.000263084
0.000165557
4.94395e-05
1.76236e-05
8.82899e-06
5.79381e-06
4.58055e-06
3.44816e-06
2.52684e-06
2.23684e-06
2.23321e-06
2.9322e-06
5.72107e-06
4.01368e-05
0.000568678
0.000277562
2.33192e-05
3.11056e-06
6.76398e-07
2.01984e-07
4.34493e-08
0
0
0
0
0
0
0
0
0
0
0
0
0
0
0
0
0
0
0
0
0
0
0
0
0
0
0
0
0
0
0
0
0
0
0
0
0
0
0
0
0
0
0
0
0
0
0
0
4.24471e-17
1.06635e-14
1.02804e-12
1.30922e-11
7.39648e-11
2.10269e-10
1.54327e-09
2.88579e-09
8.61047e-09
2.01562e-08
2.58415e-09
3.65516e-09
3.24686e-09
7.07068e-08
1.50151e-07
5.4158e-07
1.97403e-06
1.09442e-05
4.28885e-05
4.10593e-05
1.34208e-05
3.67315e-05
1.56365e-05
0.000218612
0.000697095
0.000704299
0.000630121
0.000632266
0.000657774
0.000636239
0.000485355
0.000272476
0.000120729
4.49805e-05
1.67202e-05
8.56988e-06
5.41112e-06
4.31758e-06
3.17893e-06
2.04745e-06
2.02555e-06
2.02826e-06
2.69708e-06
5.33369e-06
3.36568e-05
0.000496868
0.000329783
2.79865e-05
2.97211e-06
5.74471e-07
2.85303e-07
6.33031e-08
0
0
0
0
0
0
0
0
0
0
0
0
0
0
0
0
0
0
0
0
0
0
0
0
0
0
0
0
0
0
0
0
0
0
0
0
0
0
0
0
0
0
0
0
0
0
0
0
1.08005e-10
1.61989e-10
1.1663e-12
1.86252e-11
8.32892e-11
1.33027e-09
2.53185e-09
2.07595e-08
4.13674e-09
4.93896e-08
4.23355e-08
4.43773e-08
6.62326e-08
2.37981e-07
1.21009e-08
2.88084e-08
2.41111e-07
4.71151e-06
0.000239455
9.5518e-05
8.93821e-05
9.012e-05
4.9916e-05
0.000245966
0.000570952
0.000401941
0.000532273
0.000594163
0.000657775
0.000577036
0.000369443
0.000199738
8.97113e-05
3.6381e-05
1.43643e-05
7.36391e-06
5.19463e-06
3.9411e-06
3.00952e-06
2.17031e-06
1.86131e-06
1.83837e-06
2.58912e-06
5.2227e-06
2.68658e-05
0.000405775
0.000388278
5.06865e-07
2.53059e-06
1.60917e-12
1.01324e-14
4.4739e-08
0
0
0
0
0
0
0
0
0
0
0
0
0
0
0
0
0
0
0
0
0
0
0
0
0
0
0
0
0
0
0
0
0
0
0
0
0
0
0
0
0
0
0
0
0
0
0
0
1.2482e-10
2.62818e-10
6.66706e-12
1.90807e-10
1.09506e-09
1.55698e-09
1.1653e-09
1.23823e-07
2.44244e-08
2.76536e-07
5.9506e-09
4.73162e-09
2.33691e-07
5.93761e-07
1.36179e-06
7.18197e-08
6.99341e-07
1.35799e-05
0.000772506
0.000345221
0.000194411
0.000129945
0.000190193
0.000218865
0.000384411
0.000460859
0.000491668
0.000588108
0.000649954
0.000434232
0.000191743
0.000136494
5.99918e-05
2.6469e-05
1.17669e-05
6.2588e-06
4.71521e-06
3.66723e-06
2.94059e-06
2.1631e-06
1.79709e-06
1.72896e-06
2.482e-06
5.15991e-06
4.69738e-05
0.00045515
0.000409403
2.71708e-05
2.13723e-06
2.93533e-07
2.45667e-07
2.96264e-08
0
0
0
0
0
0
0
0
0
0
0
0
0
0
0
0
0
0
0
0
0
0
0
0
0
0
0
0
0
0
0
0
0
0
0
0
0
0
0
0
0
0
0
0
0
0
0
0
1.16242e-17
2.72972e-10
7.06912e-10
7.15964e-10
1.02318e-09
9.34097e-10
2.2967e-08
1.13342e-07
4.23274e-07
5.75241e-08
6.11662e-07
1.02848e-06
1.43555e-07
2.54734e-07
8.53927e-07
5.20871e-07
1.51851e-05
0.000124078
0.000687382
0.000464909
0.000349779
0.000395547
0.000350623
0.000408406
0.000449487
0.0004611
0.000515464
0.000593221
0.000603973
0.000408999
0.000194802
8.71547e-05
5.76419e-05
1.91728e-05
9.08749e-06
5.37786e-06
4.13334e-06
3.47567e-06
2.96965e-06
2.26921e-06
2.08449e-06
1.69989e-06
2.45365e-06
5.33666e-06
3.54265e-05
0.000470889
9.59218e-05
2.01421e-05
1.66919e-06
2.44821e-07
2.68821e-07
2.96224e-08
0
0
0
0
0
0
0
0
0
0
0
0
0
0
0
0
0
0
0
0
0
0
0
0
0
0
0
0
0
0
0
0
0
0
0
0
0
0
0
0
0
0
0
0
0
0
0
0
1.6264e-10
1.39637e-11
2.23016e-10
1.49299e-09
8.05035e-09
2.24178e-09
4.05526e-09
6.47202e-08
2.06393e-06
3.16965e-06
5.14781e-06
2.06846e-06
1.04198e-05
1.52552e-06
1.40897e-05
1.59425e-05
2.76766e-05
4.58746e-05
0.000688538
0.000767923
0.000512797
0.000498938
0.000505457
0.000535137
0.000478457
0.000532121
0.000569744
0.000588193
0.000511345
0.000329768
0.000167809
7.14442e-05
3.01282e-05
1.44703e-05
7.96798e-06
5.4526e-06
3.7568e-06
4.39545e-06
3.09918e-06
2.4729e-06
1.97137e-06
1.72729e-06
2.45354e-06
5.59787e-06
4.32336e-05
0.000530547
0.000272078
1.50673e-05
1.42747e-06
6.35915e-14
1.9469e-07
2.98206e-08
0
0
0
0
0
0
0
0
0
0
0
0
0
0
0
0
0
0
0
0
0
0
0
0
0
0
0
0
0
0
0
0
0
0
0
0
0
0
0
0
0
0
0
0
0
0
0
0
6.96023e-13
1.18398e-09
1.62125e-08
5.10586e-09
3.37006e-07
7.89892e-08
1.60622e-07
7.08843e-06
4.9084e-05
4.95363e-05
5.31651e-05
5.62039e-05
7.36967e-05
3.23169e-05
5.29417e-05
5.32362e-05
7.62709e-05
8.88892e-05
0.000643453
0.000627352
0.000572493
0.000578105
0.000587764
0.000576435
0.000585477
0.000565073
0.000568643
0.000505355
0.000381144
0.000212747
0.000106239
5.04049e-05
2.05119e-05
1.26866e-05
7.32751e-06
5.53663e-06
4.76894e-06
3.50815e-06
3.34939e-06
2.75064e-06
2.20202e-06
1.74225e-06
3.22982e-06
6.28342e-06
5.5314e-05
0.000634945
3.65971e-05
1.61763e-08
1.22269e-06
3.22451e-07
4.07737e-15
3.57261e-08
1.88175e-09
0
0
0
0
0
0
0
0
0
0
0
0
0
0
0
0
0
0
0
0
0
0
0
0
0
0
0
0
0
0
0
0
0
0
0
0
0
0
0
0
0
0
0
0
0
0
0
1.34865e-10
2.9807e-07
2.18912e-06
4.88406e-07
4.08818e-06
1.04227e-05
3.44799e-05
3.80946e-05
0.000629432
0.000348269
0.000175192
0.000154384
0.000221416
0.000118976
0.000167111
0.000163234
0.000130792
0.00034948
0.00058186
0.000617889
0.000604952
0.000606894
0.000572097
0.000507453
0.000563959
0.000547892
0.000514564
0.000429702
0.000278914
0.000129916
6.64306e-05
2.96551e-05
1.44306e-05
9.52441e-06
7.2837e-06
5.98884e-06
6.06146e-06
6.01847e-06
3.72773e-06
3.08851e-06
2.46121e-06
2.71763e-06
3.67277e-06
7.3891e-06
7.46046e-05
0.000652143
0.000145636
6.89695e-09
1.03665e-06
3.6773e-07
1.07317e-07
3.62513e-08
2.26884e-08
3.39462e-09
0
0
0
0
0
0
0
0
0
0
0
0
0
0
0
0
0
0
0
0
0
0
0
0
0
0
0
0
0
0
0
0
0
0
0
0
0
0
0
0
0
0
0
0
0
0
7.26779e-08
5.78289e-05
6.88475e-05
7.59104e-05
0.000190434
0.0004038
0.000165253
0.000280114
0.000513503
0.0004371
0.000391011
0.000370241
0.000375496
0.000376358
0.000355076
0.000338775
0.000411251
0.00055216
0.0006553
0.000643969
0.000393174
0.000541674
0.00052373
0.000491218
0.000471911
0.000463262
0.000412688
0.000331987
0.000179632
6.83266e-05
3.44268e-05
1.72909e-05
1.16586e-05
9.04586e-06
8.20336e-06
8.58229e-06
7.34016e-06
9.41175e-06
4.32254e-06
3.50874e-06
2.77912e-06
2.03402e-06
2.97169e-06
9.06613e-06
0.000111959
0.000645207
0.000103241
5.48798e-06
8.42817e-07
3.17141e-07
8.05962e-08
3.70743e-08
2.96219e-08
2.2295e-08
2.08551e-09
0
0
0
0
0
0
0
0
0
0
0
0
0
0
0
0
0
0
0
0
0
0
0
0
0
0
0
0
0
0
0
0
0
0
0
0
0
0
0
0
0
0
0
0
0
1.76759e-06
6.11723e-05
0.00039213
0.000510445
0.000557038
0.000624754
0.000572173
0.000562078
0.000553615
0.000477492
0.0003574
0.00044275
0.00043225
0.000533293
0.000542508
0.000571653
0.000558397
0.000603499
0.000675841
0.000579145
0.000400818
0.000505017
0.000475299
0.000432462
0.000387973
0.000301541
0.000302374
0.000202198
9.29735e-05
2.3292e-05
1.86278e-05
1.37781e-05
1.11166e-05
1.32791e-05
1.65201e-05
1.82756e-05
1.303e-05
1.0647e-05
1.03345e-05
4.13139e-06
6.0597e-06
2.2602e-06
5.44284e-06
1.94959e-05
0.000158662
0.000447691
6.78208e-05
4.02692e-06
7.32821e-07
2.8986e-07
7.08527e-08
3.65546e-08
3.13643e-08
2.58694e-08
1.61971e-08
0
0
0
0
0
0
0
0
0
0
0
0
0
0
0
0
0
0
0
0
0
0
0
0
0
0
0
0
0
0
0
0
0
0
0
0
0
0
0
0
0
0
0
0
0
0.000955207
0.000599354
0.000390678
3.71854e-05
0.000278741
0.000524111
0.00066263
0.000587544
0.000427389
0.000202869
4.12046e-05
8.48867e-05
0.000222402
0.000405249
0.000559879
0.00064523
0.000658037
0.000672336
0.000670641
0.000575343
0.000504889
0.00048198
0.000400927
0.000306158
0.00023674
0.000184344
0.00015211
9.1714e-05
4.80208e-05
2.26571e-05
1.89696e-05
1.35227e-05
1.22161e-05
1.585e-05
1.86956e-05
2.82593e-05
2.98458e-05
1.75596e-05
1.65053e-05
1.0186e-05
4.10001e-06
4.88871e-06
7.37222e-06
1.67604e-05
0.00024522
0.000447297
3.95568e-05
2.8507e-06
6.03799e-07
2.79491e-07
6.25893e-08
3.25694e-08
2.89195e-08
2.69502e-08
2.15934e-08
0
0
0
0
0
0
0
0
0
0
0
0
0
0
0
0
0
0
0
0
0
0
0
0
0
0
0
0
0
0
0
0
0
0
0
0
0
0
0
0
0
0
0
0
0
0.00114449
0.00091735
0.0005225
0.000147539
5.13764e-05
0.000280447
0.00051963
0.000486709
0.000272935
2.37322e-05
1.6494e-05
4.82948e-06
2.51414e-05
0.000120126
0.000342675
0.000522919
0.00063279
0.000670818
0.000574584
0.000538642
0.00049789
0.000424637
0.000330536
0.000218191
0.000140906
0.000102635
9.49213e-05
5.64929e-05
4.16224e-05
3.19809e-05
1.88341e-05
1.72579e-05
2.10554e-05
2.64288e-05
4.23824e-05
4.92757e-05
4.88152e-05
2.9365e-05
1.82291e-05
1.39429e-05
9.95043e-06
3.97257e-06
1.15194e-05
2.88821e-05
0.00038694
0.000122025
8.09646e-07
2.06285e-06
5.09495e-07
2.56211e-07
4.3888e-08
8.24401e-09
1.60028e-09
3.21345e-09
6.08946e-10
0
0
0
0
0
0
0
0
0
0
0
0
0
0
0
0
0
0
0
0
0
0
0
0
0
0
0
0
0
0
0
0
0
0
0
0
0
0
0
0
0
0
0
0
0
0.00109313
0.00120921
0.000672403
0.000318171
7.3405e-05
0.000250382
0.000432646
0.000439157
0.000231644
6.60401e-05
1.77395e-05
8.26098e-06
9.54988e-06
4.54634e-05
0.000154061
0.000348922
0.000573519
0.000552975
0.000567342
0.000493032
0.00044791
0.000438855
0.000309905
0.000213054
0.000144563
0.000111388
9.39237e-05
7.00185e-05
5.41263e-05
3.81919e-05
2.49892e-05
3.53638e-05
4.26862e-05
4.18374e-05
6.92388e-05
5.90828e-05
5.5692e-05
4.11821e-05
2.65854e-05
1.41877e-05
1.31703e-05
1.05515e-05
1.16531e-05
5.07097e-05
0.000497274
5.38173e-05
1.3107e-05
1.52008e-06
4.33079e-07
1.09953e-07
7.36286e-09
0
0
0
0
0
0
0
0
0
0
0
0
0
0
0
0
0
0
0
0
0
0
0
0
0
0
0
0
0
0
0
0
0
0
0
0
0
0
0
0
0
0
0
0
0
0
0
0
0
0.00100943
0.00129542
0.00089888
0.00055129
0.000312349
0.000376806
0.000508211
0.000481354
0.000301842
0.000182533
0.000132859
0.000136428
0.000180675
0.000307285
0.000288101
0.000348341
0.000395044
0.000418077
0.000392458
0.000399443
0.000352185
0.000308922
0.000290402
0.000244064
0.000169976
0.000125285
9.82821e-05
0.000140615
8.01487e-05
5.54779e-05
6.98918e-05
7.19311e-05
5.67793e-05
8.31634e-05
0.000109211
9.43197e-05
8.67339e-05
6.53441e-05
5.10223e-05
2.05118e-05
1.86764e-05
9.18312e-06
2.03441e-05
0.000121099
0.00056489
0.00013068
7.76899e-06
1.12912e-06
3.57099e-07
7.29842e-08
7.14469e-11
0
0
0
0
0
0
0
0
0
0
0
0
0
0
0
0
0
0
0
0
0
0
0
0
0
0
0
0
0
0
0
0
0
0
0
0
0
0
0
0
0
0
0
0
0
0
0
0
0
0.000988894
0.00120212
0.00120872
0.000974962
0.000658185
0.000596976
0.000627151
0.000572366
0.000466355
0.000411819
0.000417776
0.000447956
0.000499505
0.000538259
0.000638626
0.000494527
0.000350372
0.000299847
0.000311872
0.000371534
0.000288249
0.000368599
0.000283737
0.000257508
0.000208411
0.00014136
0.000119013
0.000115548
0.000103645
0.000133262
0.000122703
9.6675e-05
0.00013568
0.000139866
0.000124595
0.000126886
0.000149145
8.47789e-05
6.99111e-05
2.72925e-05
1.41366e-05
2.42289e-05
4.09042e-05
0.000155678
0.000530888
7.55537e-05
5.04549e-06
8.43473e-07
2.73635e-07
6.05077e-08
1.77442e-09
0
0
0
0
0
0
0
0
0
0
0
0
0
0
0
0
0
0
0
0
0
0
0
0
0
0
0
0
0
0
0
0
0
0
0
0
0
0
0
0
0
0
0
0
0
0
0
0
0
0.000985356
0.00107428
0.00117813
0.00122516
0.00111386
0.000936606
0.000867968
0.000778221
0.000697925
0.000709646
0.000730605
0.000712962
0.000689515
0.000675985
0.000678304
0.000631429
0.000546905
0.000560799
0.000325692
0.000226975
0.0003429
0.00026617
0.000252018
0.000234244
0.000212277
0.000178392
0.000229116
0.000142857
0.00013401
0.00018952
0.00014473
0.000145938
0.000153521
0.000158886
0.000164716
0.000161791
0.000145918
0.000111719
0.000101927
5.68537e-05
1.92468e-05
2.00028e-05
6.80024e-05
0.000267787
0.000419069
4.34781e-05
3.53357e-06
6.93284e-07
2.91204e-07
6.15083e-08
2.44905e-08
3.12457e-11
0
0
0
0
0
0
0
0
0
0
0
0
0
0
0
0
0
0
0
0
0
0
0
0
0
0
0
0
0
0
0
0
0
0
0
0
0
0
0
0
0
0
0
0
0
0
0
0
0.000983313
0.00101134
0.00107016
0.00115535
0.00122936
0.00121688
0.00117883
0.00112864
0.00108552
0.00106879
0.000971321
0.000817661
0.000693371
0.000630486
0.000643369
0.000684311
0.00069386
0.000586892
0.000427377
0.000464821
0.000446076
0.000290462
0.000243654
0.000264736
0.000280235
0.000183263
0.000176702
0.000182525
0.000178109
0.000236313
0.000238517
0.000206058
0.000214599
0.000218362
0.000245917
0.000209781
0.000184304
0.000188094
0.000138831
5.35442e-05
3.17786e-05
3.42333e-05
0.000107498
0.000343397
0.000416009
2.63375e-05
2.4914e-06
5.82881e-07
2.79425e-07
7.38105e-08
2.80762e-08
1.92423e-08
0
0
0
0
0
0
0
0
0
0
0
0
0
0
0
0
0
0
0
0
0
0
0
0
0
0
0
0
0
0
0
0
0
0
0
0
0
0
0
0
0
0
0
0
0
0
0
0
0.000981306
0.000990835
0.00102081
0.00107321
0.0011584
0.00124251
0.00129176
0.00132008
0.00129253
0.00112977
0.00091006
0.000720668
0.000586415
0.000520972
0.000532321
0.000610993
0.000685566
0.000818508
0.00057113
0.000440294
0.000362615
0.000309703
0.00025488
0.000210718
0.000201552
0.000191577
0.000299644
0.000223852
0.000242935
0.000251529
0.00026203
0.000271668
0.000269985
0.000257839
0.00025355
0.000246649
0.000219145
0.000173903
0.000115738
6.56687e-05
4.11272e-05
5.09538e-05
0.000173652
0.000439121
0.000286448
1.61834e-05
1.81694e-06
5.00491e-07
2.49337e-07
5.004e-08
2.71028e-08
1.90683e-08
0
0
0
0
0
0
0
0
0
0
0
0
0
0
0
0
0
0
0
0
0
0
0
0
0
0
0
0
0
0
0
0
0
0
0
0
0
0
0
0
0
0
0
0
0
0
0
0
0.000979844
0.000987266
0.00100999
0.00104604
0.00109956
0.00118925
0.00124725
0.00123937
0.00108102
0.000847623
0.00064651
0.000513996
0.000433372
0.000397357
0.000416592
0.000500271
0.000624592
0.000697266
0.00075267
0.000539441
0.000561667
0.000318048
0.000259397
0.000231961
0.000219696
0.000217333
0.000238815
0.000277797
0.00030407
0.000312636
0.000315517
0.000328054
0.000299926
0.000298787
0.000294845
0.00029017
0.000296426
0.000187393
0.000136119
7.86817e-05
5.38917e-05
0.000111836
0.000246678
0.000502835
0.000179987
1.0172e-05
1.3823e-06
4.37039e-07
1.25462e-07
3.96206e-08
2.67289e-08
9.24756e-09
0
0
0
0
0
0
0
0
0
0
0
0
0
0
0
0
0
0
0
0
0
0
0
0
0
0
0
0
0
0
0
0
0
0
0
0
0
0
0
0
0
0
0
0
0
0
0
0
0.000980542
0.000994572
0.00101331
0.00105172
0.00110464
0.00112214
0.00105154
0.000894606
0.000703511
0.00051804
0.000394132
0.00032751
0.00029558
0.000289222
0.00031647
0.000396416
0.00052782
0.000649835
0.000786275
0.000646738
0.000493769
0.000367628
0.000270393
0.000260296
0.000260454
0.000382314
0.000395451
0.000338174
0.000360259
0.000367042
0.000362593
0.000348245
0.00034036
0.000336549
0.000338689
0.000332587
0.000273711
0.000205128
0.000151169
9.39573e-05
7.11236e-05
0.000107262
0.000338838
0.000447412
0.000108985
6.55132e-06
1.06655e-06
3.64681e-07
8.46217e-08
3.31156e-08
1.65258e-08
0
0
0
0
0
0
0
0
0
0
0
0
0
0
0
0
0
0
0
0
0
0
0
0
0
0
0
0
0
0
0
0
0
0
0
0
0
0
0
0
0
0
0
0
0
0
0
0
0
0.000987038
0.00101013
0.00104004
0.0010761
0.00106832
0.000943079
0.000739714
0.00056083
0.000405471
0.000291163
0.000227004
0.000197915
0.000192611
0.000205278
0.000239441
0.000310218
0.000432438
0.000577735
0.000680344
0.000744189
0.000581077
0.00045475
0.000499213
0.000327182
0.000325504
0.000350905
0.000375559
0.000394042
0.000409485
0.000411997
0.000402176
0.000388279
0.000378891
0.000461658
0.000465314
0.000365448
0.000289652
0.000219821
0.000167073
0.000111581
9.48692e-05
0.000162993
0.000418826
0.000463118
6.18463e-05
4.34941e-06
8.57281e-07
2.97363e-07
6.55446e-08
2.81563e-08
1.31381e-08
0
0
0
0
0
0
0
0
0
0
0
0
0
0
0
0
0
0
0
0
0
0
0
0
0
0
0
0
0
0
0
0
0
0
0
0
0
0
0
0
0
0
0
0
0
0
0
0
0
0.00100298
0.00104935
0.00106348
0.00101389
0.000894733
0.00067614
0.000471013
0.000332936
0.000230942
0.000164471
0.000130224
0.000117981
0.000122615
0.00014394
0.000180582
0.000243349
0.000349918
0.000492934
0.000616854
0.00073214
0.000651482
0.000537466
0.000454563
0.000412421
0.00053811
0.00042692
0.000440498
0.000532352
0.000447594
0.000445977
0.000434637
0.000422927
0.000416286
0.000417782
0.000434343
0.000387004
0.000297919
0.00023445
0.000185
0.000145378
0.000140064
0.00022112
0.000478013
0.000235513
3.6356e-05
3.09838e-06
7.1921e-07
2.29322e-07
5.25516e-08
2.18258e-08
1.50845e-12
0
0
0
0
0
0
0
0
0
0
0
0
0
0
0
0
0
0
0
0
0
0
0
0
0
0
0
0
0
0
0
0
0
0
0
0
0
0
0
0
0
0
0
0
0
0
0
0
0
0.00103668
0.00103268
0.000908833
0.000786856
0.000620322
0.000423111
0.000291498
0.000196579
0.00013508
9.65376e-05
7.6856e-05
7.17634e-05
7.93361e-05
0.000100088
0.000136629
0.000193049
0.000283136
0.000412231
0.000549348
0.000633799
0.000701943
0.000603498
0.000534684
0.000489847
0.000609682
0.000480523
0.000482353
0.000472208
0.000474449
0.000470447
0.000461951
0.000454319
0.000453488
0.000462864
0.000465385
0.000391533
0.000304236
0.000251472
0.000207239
0.000169726
0.000222948
0.000299778
0.000497385
0.00027944
2.09775e-05
2.22618e-06
6.01301e-07
1.60006e-07
4.16813e-08
1.8171e-08
0
0
0
0
0
0
0
0
0
0
0
0
0
0
0
0
0
0
0
0
0
0
0
0
0
0
0
0
0
0
0
0
0
0
0
0
0
0
0
0
0
0
0
0
0
0
0
0
0
0
0.00107722
0.000789995
0.000578117
0.000462035
0.000353682
0.000253297
0.000172007
0.000114616
7.96652e-05
5.88265e-05
4.84245e-05
4.6262e-05
5.32943e-05
7.14838e-05
0.000103882
0.000154163
0.000230952
0.000341957
0.000471833
0.00056916
0.00067745
0.000694014
0.000588677
0.00053896
0.000518679
0.000510339
0.000596216
0.000491901
0.000489159
0.000487163
0.000485043
0.000485717
0.000498297
0.0004993
0.000466493
0.000384907
0.000313856
0.000273116
0.00023246
0.000199592
0.000232167
0.000370883
0.000468281
0.000175792
1.20101e-05
1.62449e-06
4.91938e-07
1.09464e-07
3.37318e-08
1.09575e-08
0
0
0
0
0
0
0
0
0
0
0
0
0
0
0
0
0
0
0
0
0
0
0
0
0
0
0
0
0
0
0
0
0
0
0
0
0
0
0
0
0
0
0
0
0
0
0
0
0
0
0.000807124
0.000403642
0.000285512
0.000239815
0.000194166
0.000141309
9.75733e-05
6.78419e-05
4.92572e-05
3.85259e-05
3.27272e-05
3.18178e-05
3.81234e-05
5.253e-05
7.93205e-05
0.000123448
0.000189014
0.000282735
0.000398423
0.000503025
0.000570485
0.000697258
0.000654299
0.000566755
0.00053643
0.000606969
0.000598493
0.000496956
0.000495559
0.00049799
0.000588353
0.000521062
0.000557325
0.000517954
0.000451429
0.000384939
0.000329441
0.000300439
0.000261411
0.000241888
0.000301332
0.00043783
0.000393212
3.29501e-05
7.10125e-06
1.2095e-06
4.07322e-07
8.46361e-08
2.5121e-08
2.26924e-09
2.15455e-10
0
0
0
0
0
0
0
0
0
0
0
0
0
0
0
0
0
0
0
0
0
0
0
0
0
0
0
0
0
0
0
0
0
0
0
0
0
0
0
0
0
0
0
0
0
0
0
0
0
2.12846e-05
3.52039e-05
4.61109e-05
5.38274e-05
5.45349e-05
4.84066e-05
3.98195e-05
3.217e-05
2.65413e-05
2.30801e-05
2.09218e-05
2.12025e-05
2.65275e-05
3.69415e-05
5.69202e-05
9.04582e-05
0.000140567
0.000209976
0.000295631
0.000383222
0.000455077
0.000514489
0.000613465
0.000610234
0.000539672
0.000513811
0.000499175
0.000491914
0.000493251
0.000500588
0.000528494
0.000587706
0.000528226
0.000464854
0.000421633
0.00038164
0.000356231
0.000353669
0.000308692
0.000316481
0.000392228
0.000462194
0.000119539
3.2104e-05
3.15382e-06
7.23685e-07
2.09142e-07
4.81702e-08
1.94041e-10
0
0
0
0
0
0
0
0
0
0
0
0
0
0
0
0
0
0
0
0
0
0
0
0
0
0
0
0
0
0
0
0
0
0
0
0
0
0
0
0
0
0
0
0
0
0
0
0
0
0
0
2.02073e-06
4.50981e-06
6.78669e-06
9.22102e-06
1.17483e-05
1.35379e-05
1.41446e-05
1.40265e-05
1.38942e-05
1.37501e-05
1.36615e-05
1.42031e-05
1.75008e-05
2.46658e-05
3.6993e-05
5.82458e-05
9.08774e-05
0.000135288
0.000190985
0.000252178
0.000309362
0.00035655
0.000409637
0.000471861
0.000511232
0.000524799
0.000528502
0.000518818
0.000489459
0.000458608
0.00046807
0.000505559
0.000446696
0.00041928
0.000402676
0.000403272
0.000423324
0.00041837
0.000385859
0.000414803
0.00045579
0.000253058
3.6221e-05
1.05647e-05
1.52835e-06
4.27819e-07
1.01374e-07
1.17705e-08
0
0
0
0
0
0
0
0
0
0
0
0
0
0
0
0
0
0
0
0
0
0
0
0
0
0
0
0
0
0
0
0
0
0
0
0
0
0
0
0
0
0
0
0
0
0
0
0
0
0
0
0
2.51141e-07
7.89184e-07
1.42292e-06
2.28219e-06
3.4324e-06
4.78949e-06
6.11363e-06
7.25285e-06
8.28758e-06
9.05813e-06
9.61537e-06
1.02001e-05
1.2001e-05
1.67891e-05
2.47308e-05
3.7322e-05
5.6457e-05
8.25663e-05
0.000114986
0.000152218
0.000189906
0.000227216
0.000265843
0.000311438
0.000363067
0.000419706
0.000467836
0.000467955
0.000441749
0.000394999
0.000381911
0.000373551
0.000416587
0.000398508
0.000400734
0.000445794
0.000537494
0.000467771
0.000459829
0.000457402
0.000395288
0.000182265
4.05443e-05
3.74738e-06
8.03317e-07
2.35015e-07
5.78742e-08
1.33552e-11
0
0
0
0
0
0
0
0
0
0
0
0
0
0
0
0
0
0
0
0
0
0
0
0
0
0
0
0
0
0
0
0
0
0
0
0
0
0
0
0
0
0
0
0
0
0
0
0
0
0
0
0
4.17365e-08
1.75619e-07
4.13947e-07
8.21957e-07
1.51086e-06
2.45481e-06
3.5262e-06
4.54941e-06
5.50419e-06
6.26148e-06
6.81325e-06
7.37361e-06
8.51754e-06
1.15667e-05
1.68432e-05
2.45355e-05
3.55112e-05
5.00605e-05
6.78899e-05
8.87847e-05
0.000112266
0.000139037
0.000169855
0.00020756
0.000253306
0.000309892
0.000353693
0.000380355
0.000406512
0.000391561
0.000377173
0.000312632
0.000393912
0.000392179
0.0004283
0.000526321
0.000582769
0.000503992
0.000477277
0.000390186
0.000226442
7.84961e-05
1.14692e-05
1.65475e-06
4.70094e-07
1.23572e-07
2.98578e-08
0
0
0
0
0
0
0
0
0
0
0
0
0
0
0
0
0
0
0
0
0
0
0
0
0
0
0
0
0
0
0
0
0
0
0
0
0
0
0
0
0
0
0
0
0
0
0
0
0
0
0
0
0
0
5.34672e-08
1.85418e-07
4.90471e-07
1.00094e-06
1.71637e-06
2.54483e-06
3.30517e-06
3.88576e-06
4.40835e-06
4.7435e-06
5.03311e-06
6.13076e-06
8.26372e-06
1.15958e-05
1.66598e-05
2.33633e-05
3.1886e-05
4.2263e-05
5.47494e-05
6.99897e-05
8.88461e-05
0.000112324
0.000143936
0.000184926
0.000237229
0.00028809
0.000346312
0.000386009
0.000374658
0.000351325
0.00028618
0.000392063
0.000412975
0.000494515
0.000656159
0.000542108
0.000485527
0.000410979
0.000225425
8.67781e-05
2.33274e-05
3.43107e-06
7.74164e-07
2.23122e-07
6.3339e-08
4.16653e-10
0
0
0
0
0
0
0
0
0
0
0
0
0
0
0
0
0
0
0
0
0
0
0
0
0
0
0
0
0
0
0
0
0
0
0
0
0
0
0
0
0
0
0
0
0
0
0
0
0
0
0
0
0
0
1.51858e-08
1.12433e-07
3.32054e-07
7.29456e-07
1.28142e-06
1.90278e-06
2.43441e-06
2.74227e-06
3.02331e-06
3.14987e-06
3.68387e-06
5.00653e-06
6.87295e-06
9.53691e-06
1.32341e-05
1.78321e-05
2.33018e-05
3.00599e-05
3.80281e-05
4.83923e-05
6.23268e-05
8.17014e-05
0.000109388
0.000148509
0.000201051
0.00025558
0.00032123
0.000359594
0.000340895
0.000312817
0.000315193
0.000443444
0.000505795
0.00059875
0.000564279
0.000479925
0.00038233
0.000276896
8.45056e-05
2.49536e-05
5.47366e-06
1.29424e-06
3.94653e-07
1.01794e-07
1.29086e-08
0
0
0
0
0
0
0
0
0
0
0
0
0
0
0
0
0
0
0
0
0
0
0
0
0
0
0
0
0
0
0
0
0
0
0
0
0
0
0
0
0
0
0
0
0
0
0
0
0
0
0
0
0
0
0
2.22313e-09
5.39237e-08
1.68024e-07
3.99399e-07
7.39621e-07
1.11056e-06
1.4702e-06
1.6832e-06
1.90313e-06
2.23757e-06
3.06641e-06
4.15934e-06
5.80635e-06
8.08424e-06
1.09343e-05
1.45392e-05
1.87237e-05
2.35529e-05
2.94485e-05
3.72582e-05
4.8521e-05
6.59061e-05
9.16272e-05
0.000131659
0.000185385
0.000240294
0.000300311
0.000324962
0.000293647
0.000293643
0.000386853
0.000440898
0.000461257
0.000488218
0.000462752
0.000360161
0.000215808
0.00012517
2.27232e-05
6.03851e-06
1.8909e-06
5.72115e-07
1.70382e-07
5.22918e-08
0
0
0
0
0
0
0
0
0
0
0
0
0
0
0
0
0
0
0
0
0
0
0
0
0
0
0
0
0
0
0
0
0
0
0
0
0
0
0
0
0
0
0
0
0
0
0
0
0
0
0
0
0
0
0
0
0
1.2923e-08
4.26573e-08
1.16684e-07
2.4884e-07
4.25043e-07
5.91588e-07
7.36418e-07
1.08691e-06
1.5634e-06
2.35124e-06
3.23478e-06
4.6282e-06
6.72707e-06
9.48596e-06
1.2998e-05
1.69386e-05
2.11836e-05
2.62885e-05
3.28522e-05
4.31584e-05
5.9546e-05
8.51552e-05
0.0001264
0.000181198
0.000231733
0.000275085
0.000282196
0.000296373
0.000296065
0.000307638
0.00030735
0.000331516
0.000369224
0.000339293
0.000208426
8.04956e-05
3.75559e-05
5.80077e-06
2.08014e-06
7.15895e-07
2.64723e-07
8.04356e-08
2.61633e-08
0
0
0
0
0
0
0
0
0
0
0
0
0
0
0
0
0
0
0
0
0
0
0
0
0
0
0
0
0
0
0
0
0
0
0
0
0
0
0
0
0
0
0
0
0
0
0
0
0
0
0
0
0
0
0
0
0
0
1.59476e-08
4.96199e-08
1.18616e-07
2.42216e-07
3.43133e-07
3.57583e-07
5.0469e-07
9.9255e-07
1.63573e-06
2.33159e-06
3.70293e-06
6.03194e-06
8.92096e-06
1.24936e-05
1.64008e-05
2.04041e-05
2.51026e-05
3.10928e-05
4.07609e-05
5.65721e-05
8.19513e-05
0.000123404
0.000179094
0.000229051
0.000258532
0.000273975
0.00026287
0.000240031
0.000218891
0.000202627
0.00021673
0.000244048
0.000203869
8.62067e-05
2.22824e-05
8.68891e-06
2.12655e-06
7.53339e-07
3.25366e-07
9.81764e-08
4.06452e-08
0
0
0
0
0
0
0
0
0
0
0
0
0
0
0
0
0
0
0
0
0
0
0
0
0
0
0
0
0
0
0
0
0
0
0
0
0
0
0
0
0
0
0
0
0
0
0
0
0
0
0
0
0
0
0
0
0
0
0
4.84259e-09
1.62299e-08
4.68162e-08
1.12963e-07
2.00589e-07
2.11345e-07
2.21578e-07
5.65078e-07
1.07058e-06
1.79476e-06
3.10132e-06
5.29876e-06
8.19931e-06
1.18303e-05
1.58038e-05
1.97705e-05
2.41684e-05
2.98006e-05
3.88449e-05
5.38437e-05
7.77935e-05
0.000116081
0.000169267
0.000225442
0.000253865
0.000226264
0.000185001
0.000157948
0.000131003
0.000109685
0.00011483
0.000128441
9.74926e-05
2.86794e-05
5.97948e-06
2.7276e-06
8.43205e-07
3.44761e-07
1.18474e-07
4.62965e-08
2.12891e-10
0
0
0
0
0
0
0
0
0
0
0
0
0
0
0
0
0
0
0
0
0
0
0
0
0
0
0
0
0
0
0
0
0
0
0
0
0
0
0
0
0
0
0
0
0
0
0
0
0
0
0
0
0
0
0
0
0
0
0
0
4.73276e-09
1.45228e-08
4.13012e-08
9.97745e-08
1.23123e-07
1.02706e-07
2.82005e-07
7.11387e-07
1.37767e-06
2.52256e-06
4.5171e-06
7.29869e-06
1.08335e-05
1.48061e-05
1.87705e-05
2.2881e-05
2.80584e-05
3.62025e-05
4.92351e-05
7.01534e-05
0.000100926
0.000141321
0.000173728
0.000166712
0.000137157
0.000110776
8.81784e-05
6.6795e-05
4.85455e-05
5.00094e-05
5.06827e-05
3.56634e-05
8.49011e-06
2.33748e-06
1.01482e-06
3.96683e-07
1.39678e-07
5.44698e-08
6.39328e-10
0
0
0
0
0
0
0
0
0
0
0
0
0
0
0
0
0
0
0
0
0
0
0
0
0
0
0
0
0
0
0
0
0
0
0
0
0
0
0
0
0
0
0
0
0
0
0
0
0
0
0
0
0
0
0
0
0
0
0
0
0
0
4.22307e-09
1.2922e-08
4.11871e-08
6.66463e-08
6.10543e-08
1.21431e-07
4.55985e-07
1.04008e-06
1.99255e-06
3.70062e-06
6.22481e-06
9.49163e-06
1.33073e-05
1.71371e-05
2.08999e-05
2.54506e-05
3.20723e-05
4.31074e-05
5.94647e-05
7.96433e-05
9.93505e-05
0.000107747
9.75033e-05
7.82432e-05
5.8508e-05
4.29998e-05
3.31031e-05
1.96537e-05
1.61429e-05
1.62142e-05
1.02922e-05
2.85823e-06
9.61633e-07
4.30559e-07
1.72296e-07
6.72771e-08
1.2348e-08
0
0
0
0
0
0
0
0
0
0
0
0
0
0
0
0
0
0
0
0
0
0
0
0
0
0
0
0
0
0
0
0
0
0
0
0
0
0
0
0
0
0
0
0
0
0
0
0
0
0
0
0
0
0
0
0
0
0
0
0
0
0
0
0
0
1.51947e-08
3.34953e-08
3.11914e-08
6.53263e-08
2.44058e-07
7.2482e-07
1.46508e-06
2.85777e-06
5.02978e-06
7.88255e-06
1.13343e-05
1.48373e-05
1.81315e-05
2.18759e-05
2.74136e-05
3.60724e-05
4.63936e-05
5.68662e-05