/*--------------------------------*- C++ -*----------------------------------*\
  =========                 |
  \\      /  F ield         | OpenFOAM: The Open Source CFD Toolbox
   \\    /   O peration     | Website:  https://openfoam.org
    \\  /    A nd           | Version:  6
     \\/     M anipulation  |
\*---------------------------------------------------------------------------*/
FoamFile
{
    version     2.0;
    format      ascii;
    class       volScalarField;
    location    "0.005";
    object      OH;
}
// * * * * * * * * * * * * * * * * * * * * * * * * * * * * * * * * * * * * * //

dimensions      [0 0 0 0 0 0 0];

internalField   nonuniform List<scalar> 
8000
(
9.63834e-22
3.02576e-17
1.99875e-16
2.15092e-15
3.39366e-14
5.64359e-13
6.5656e-12
4.24067e-11
1.58581e-10
4.20941e-10
8.72113e-10
1.5219e-09
2.44116e-09
3.32189e-09
3.38017e-09
3.28018e-09
4.521e-09
1.03465e-08
3.58604e-08
2.1003e-07
2.00051e-06
2.75757e-05
0.000336028
0.000413632
0.000996914
0.00131026
0.00111325
0.00111614
0.00130382
0.00146631
0.00144592
0.00115573
0.000695808
0.000346014
0.000156756
8.4432e-05
5.03002e-05
3.42879e-05
2.46224e-05
1.96846e-05
1.8476e-05
1.8976e-05
2.30654e-05
4.9578e-05
0.000350865
0.00196528
0.000768769
0.000351113
0.000134308
1.26992e-05
9.446e-07
1.07729e-07
1.39756e-09
0
0
0
0
0
0
0
0
0
0
0
0
0
0
0
0
0
0
0
0
0
0
0
0
0
0
0
0
0
0
0
0
0
0
0
0
0
0
0
0
0
0
0
0
0
0
0
1.57101e-20
2.90934e-16
8.06014e-16
7.55368e-15
8.26776e-14
1.29777e-12
1.69394e-11
1.34017e-10
6.19128e-10
1.7405e-09
3.5117e-09
5.54003e-09
8.15344e-09
1.20184e-08
1.10824e-08
8.04474e-09
9.18966e-09
1.95144e-08
5.48672e-08
2.539e-07
2.35225e-06
5.24647e-05
0.000803397
0.00100451
0.00118402
0.00121157
0.000794064
0.000900417
0.00124181
0.00147523
0.0014762
0.00117817
0.000698698
0.000339671
0.000151418
8.45395e-05
4.92577e-05
3.45295e-05
2.41248e-05
2.07292e-05
1.87168e-05
1.84842e-05
2.25281e-05
4.84452e-05
0.000334983
0.00193851
0.000774687
0.000285047
0.000136684
1.20076e-05
1.00857e-06
1.53177e-07
6.29611e-10
0
0
0
0
0
0
0
0
0
0
0
0
0
0
0
0
0
0
0
0
0
0
0
0
0
0
0
0
0
0
0
0
0
0
0
0
0
0
0
0
0
0
0
0
0
0
0
1.15962e-16
1.87909e-10
1.19102e-16
4.05957e-10
4.07726e-13
4.92869e-12
5.92606e-11
6.39619e-10
3.80528e-09
1.54047e-08
3.33363e-08
4.59194e-08
5.19128e-08
8.08922e-08
1.05072e-08
7.02767e-09
2.98484e-08
6.79348e-08
1.43136e-07
3.78879e-07
1.88127e-06
1.87245e-05
0.000392654
0.000322167
0.000725786
0.00125195
0.000131286
0.000739034
0.00130198
0.00157405
0.00156188
0.00121688
0.00069538
0.000324559
0.000138874
7.55983e-05
4.71844e-05
3.27339e-05
2.37434e-05
1.96344e-05
1.77078e-05
1.80454e-05
2.1959e-05
4.69876e-05
0.000291742
0.0018892
0.000519656
0.000179953
1.2313e-06
6.40827e-06
7.49328e-07
9.33674e-08
2.07477e-10
0
0
0
0
0
0
0
0
0
0
0
0
0
0
0
0
0
0
0
0
0
0
0
0
0
0
0
0
0
0
0
0
0
0
0
0
0
0
0
0
0
0
0
0
0
0
0
1.61715e-20
4.82419e-15
1.62232e-13
1.61973e-12
8.19591e-12
2.61195e-11
1.67415e-10
1.57422e-09
1.54591e-08
1.01488e-08
4.70414e-07
5.45612e-07
4.83563e-07
1.47439e-08
5.7219e-08
4.32854e-08
7.9389e-08
3.8364e-07
3.44003e-08
9.1375e-07
2.53791e-06
9.69274e-07
8.21385e-05
0.000154309
0.000451119
0.0010989
0.00135475
0.00141863
0.00154201
0.00110573
0.00159339
0.00120347
0.000665616
0.000302018
0.000117648
6.32814e-05
4.30592e-05
2.97785e-05
2.206e-05
1.879e-05
1.65026e-05
1.66565e-05
2.03322e-05
4.37085e-05
0.000266896
0.00189169
0.000532271
7.52197e-05
1.8049e-05
2.5774e-06
3.91966e-07
3.62527e-08
9.64631e-12
0
0
0
0
0
0
0
0
0
0
0
0
0
0
0
0
0
0
0
0
0
0
0
0
0
0
0
0
0
0
0
0
0
0
0
0
0
0
0
0
0
0
0
0
0
0
0
2.29986e-18
5.84945e-15
9.26504e-10
2.0788e-11
2.41479e-09
1.62004e-10
4.13135e-10
2.10407e-09
2.67073e-08
1.64479e-08
8.46169e-07
4.76567e-07
1.14667e-07
3.0424e-07
9.55348e-08
1.10824e-08
2.74301e-07
6.24599e-08
2.25478e-06
2.94279e-06
7.28563e-07
1.43137e-06
4.74492e-05
5.38257e-05
0.000255412
0.000953142
0.00156942
0.000605507
0.00114225
0.001614
0.00158969
0.00113981
0.000619094
0.000263848
9.84644e-05
3.51901e-05
3.75134e-05
2.76873e-05
2.22252e-05
1.71256e-05
1.51767e-05
1.52584e-05
1.92179e-05
4.06085e-05
0.00024216
0.0018668
0.00042937
3.94654e-05
6.88705e-06
1.16918e-06
2.09097e-07
9.08115e-09
0
0
0
0
0
0
0
0
0
0
0
0
0
0
0
0
0
0
0
0
0
0
0
0
0
0
0
0
0
0
0
0
0
0
0
0
0
0
0
0
0
0
0
0
0
0
0
0
8.38625e-17
1.02165e-15
6.78286e-12
1.33976e-09
9.50667e-10
2.03151e-09
8.04358e-10
2.16065e-09
1.13875e-08
8.81448e-08
4.87969e-07
5.20621e-07
2.51941e-07
1.0464e-07
9.44809e-08
2.30876e-07
1.05836e-06
6.13535e-07
1.45845e-05
3.13573e-06
1.54406e-05
3.35671e-06
5.31252e-05
7.08899e-05
0.000556112
0.000981208
0.00138214
0.000956364
0.00112973
0.00177629
0.00167039
0.00104494
0.000498864
0.000248073
9.62989e-05
5.08599e-05
3.43166e-05
2.67112e-05
2.03374e-05
1.53909e-05
1.38649e-05
1.39655e-05
1.23752e-05
3.68917e-05
0.000214139
0.00178697
0.000453477
3.18132e-05
4.12383e-06
8.01228e-07
2.2615e-07
4.78539e-08
0
0
0
0
0
0
0
0
0
0
0
0
0
0
0
0
0
0
0
0
0
0
0
0
0
0
0
0
0
0
0
0
0
0
0
0
0
0
0
0
0
0
0
0
0
0
0
0
5.87333e-17
1.47477e-14
1.42145e-12
1.80819e-11
1.02012e-10
2.89409e-10
2.41624e-09
3.91943e-09
1.16092e-08
2.69671e-08
6.36702e-09
8.94542e-09
7.9514e-09
9.3544e-08
1.96842e-07
6.94718e-07
2.44116e-06
1.3004e-05
8.32147e-05
5.04297e-05
2.55301e-05
4.43638e-05
2.9601e-05
0.000290925
0.00157094
0.00146607
0.00126286
0.00141888
0.00160513
0.00177215
0.00157592
0.00103822
0.000531771
0.000225736
9.2132e-05
4.95126e-05
3.21204e-05
2.50552e-05
1.90505e-05
8.87587e-06
1.27412e-05
1.28658e-05
1.69265e-05
3.4667e-05
0.000182748
0.00164036
0.000536388
3.71001e-05
3.87663e-06
6.62868e-07
3.00291e-07
7.06374e-08
0
0
0
0
0
0
0
0
0
0
0
0
0
0
0
0
0
0
0
0
0
0
0
0
0
0
0
0
0
0
0
0
0
0
0
0
0
0
0
0
0
0
0
0
0
0
0
0
2.00729e-10
3.18258e-10
1.61538e-12
2.57876e-11
1.1511e-10
2.0853e-09
3.44728e-09
2.77499e-08
1.01053e-08
6.52161e-08
5.59772e-08
5.87216e-08
8.74529e-08
3.09963e-07
2.89768e-08
6.77452e-08
5.11467e-07
8.65565e-06
0.000361387
0.00018849
0.000113702
0.00011501
9.6985e-05
0.000342299
0.00103775
0.000815546
0.000944792
0.00118581
0.00156535
0.00166436
0.00125525
0.000791607
0.000411585
0.000186745
8.01917e-05
4.29734e-05
3.02015e-05
2.32741e-05
1.83729e-05
1.36678e-05
1.19162e-05
1.18398e-05
1.63884e-05
3.38217e-05
0.000149211
0.00143495
0.000623689
9.1941e-07
3.32088e-06
2.73711e-12
1.74576e-14
4.95797e-08
0
0
0
0
0
0
0
0
0
0
0
0
0
0
0
0
0
0
0
0
0
0
0
0
0
0
0
0
0
0
0
0
0
0
0
0
0
0
0
0
0
0
0
0
0
0
0
0
2.30287e-10
4.74796e-10
9.23838e-12
2.64276e-10
1.73438e-09
2.13469e-09
3.93273e-09
1.63504e-07
5.73345e-08
3.56688e-07
1.45019e-08
1.16033e-08
3.01839e-07
7.56854e-07
1.70666e-06
1.59933e-07
1.39504e-06
2.47727e-05
0.00167192
0.000523248
0.000271524
0.000267396
0.000268504
0.000453326
0.000814954
0.000762881
0.000854442
0.00118608
0.00166821
0.00140351
0.000573379
0.000429371
0.000287824
0.000139796
6.63617e-05
3.69642e-05
2.73904e-05
2.21312e-05
1.83283e-05
1.3895e-05
7.90267e-06
7.66656e-06
1.58567e-05
3.35082e-05
0.000160106
0.00118544
0.000634691
3.56048e-05
2.76115e-06
3.34865e-07
2.48278e-07
3.24233e-08
0
0
0
0
0
0
0
0
0
0
0
0
0
0
0
0
0
0
0
0
0
0
0
0
0
0
0
0
0
0
0
0
0
0
0
0
0
0
0
0
0
0
0
0
0
0
0
0
1.61482e-17
5.58346e-10
1.10011e-09
1.46774e-09
1.40414e-09
3.26918e-09
3.08177e-08
1.48525e-07
5.39932e-07
1.17858e-07
7.74048e-07
1.29158e-06
2.88658e-07
5.08459e-07
1.68928e-06
1.03305e-06
1.80234e-05
0.000151621
0.00141717
0.000779824
0.000549406
0.000658687
0.000571036
0.000694184
0.00076924
0.000796951
0.000969123
0.00129107
0.00160582
0.000922302
0.00076092
0.000390341
0.000190446
0.000105097
5.22864e-05
2.11062e-05
2.46343e-05
2.15134e-05
1.8926e-05
1.48798e-05
8.99662e-06
1.12978e-05
1.58207e-05
3.45987e-05
0.000190916
0.00158257
0.00017828
2.67125e-05
2.12704e-06
2.76182e-07
2.75223e-07
3.24663e-08
0
0
0
0
0
0
0
0
0
0
0
0
0
0
0
0
0
0
0
0
0
0
0
0
0
0
0
0
0
0
0
0
0
0
0
0
0
0
0
0
0
0
0
0
0
0
0
0
3.33099e-10
1.93141e-11
3.06643e-10
2.03819e-09
1.08764e-08
7.51935e-09
9.97668e-09
1.32016e-07
2.55242e-06
3.90329e-06
6.31356e-06
3.91061e-06
1.26745e-05
2.9272e-06
1.69099e-05
1.90873e-05
3.28311e-05
8.36174e-05
0.00136815
0.00169281
0.000914316
0.0010794
0.000958573
0.00117731
0.00103987
0.00103713
0.00122188
0.0014238
0.00146021
0.00111013
0.000660645
0.00032505
0.000154694
8.08306e-05
4.62786e-05
2.14139e-05
2.30176e-05
1.75826e-05
2.02018e-05
1.65404e-05
1.33624e-05
1.16763e-05
1.59686e-05
3.64338e-05
0.00022729
0.00168902
0.000398771
2.01752e-05
1.7834e-06
1.072e-13
1.92715e-07
3.27138e-08
0
0
0
0
0
0
0
0
0
0
0
0
0
0
0
0
0
0
0
0
0
0
0
0
0
0
0
0
0
0
0
0
0
0
0
0
0
0
0
0
0
0
0
0
0
0
0
0
9.61825e-13
1.61435e-09
2.17918e-08
9.16572e-09
4.34514e-07
1.65804e-07
3.22325e-07
8.67509e-06
6.60039e-05
6.57718e-05
7.02938e-05
7.37446e-05
9.62559e-05
6.23552e-05
6.59085e-05
6.57692e-05
9.51287e-05
0.000169856
0.00128248
0.00131442
0.00111423
0.00117026
0.00130228
0.00140172
0.00129865
0.00124957
0.00138968
0.0011182
0.00120488
0.000586453
0.000447485
0.000236599
0.000109946
4.61227e-05
4.35611e-05
3.27976e-05
1.89929e-05
2.28987e-05
2.23038e-05
1.8727e-05
1.51613e-05
1.19745e-05
1.33946e-05
4.04915e-05
0.000281499
0.00148829
6.74197e-05
3.28362e-08
1.49952e-06
3.55855e-07
7.13679e-15
3.94526e-08
2.46373e-09
0
0
0
0
0
0
0
0
0
0
0
0
0
0
0
0
0
0
0
0
0
0
0
0
0
0
0
0
0
0
0
0
0
0
0
0
0
0
0
0
0
0
0
0
0
0
0
1.85025e-10
3.87389e-07
2.76164e-06
9.4042e-07
7.69634e-06
1.95881e-05
4.26019e-05
7.37373e-05
0.00130992
0.000782015
0.000391238
0.000344459
0.000354769
0.000254932
0.000239705
0.000224509
0.000260794
0.000522986
0.00104952
0.00133917
0.00139961
0.00141101
0.00145188
0.00118596
0.0013903
0.00136485
0.00138722
0.000973158
0.000965252
0.000525096
0.000298287
0.000149189
7.98658e-05
5.5488e-05
4.42932e-05
3.62899e-05
2.36876e-05
2.35099e-05
2.52841e-05
2.13637e-05
1.7169e-05
1.13937e-05
1.49907e-05
4.69026e-05
0.000363724
0.00141984
0.000199723
1.46466e-08
1.2573e-06
4.05255e-07
1.19319e-07
4.00701e-08
2.48215e-08
4.11663e-09
0
0
0
0
0
0
0
0
0
0
0
0
0
0
0
0
0
0
0
0
0
0
0
0
0
0
0
0
0
0
0
0
0
0
0
0
0
0
0
0
0
0
0
0
0
0
9.64182e-08
0.000116094
0.000137041
0.000151036
0.000288812
0.000885079
0.000343226
0.000433438
0.000971409
0.000863341
0.000804488
0.000752136
0.000745952
0.000714168
0.000630156
0.000551811
0.00066472
0.00113765
0.00134141
0.00145398
0.000964974
0.001479
0.00145184
0.00138432
0.00108057
0.00131618
0.000937617
0.00108531
0.000680505
0.000302514
0.000167739
9.3449e-05
4.28325e-05
5.33573e-05
4.98982e-05
5.01278e-05
4.34042e-05
3.41027e-05
2.96531e-05
2.45511e-05
1.95901e-05
1.43227e-05
2.00159e-05
5.6816e-05
0.000506276
0.00153284
0.000141051
7.36864e-06
1.01208e-06
3.49976e-07
8.98458e-08
4.10295e-08
3.27253e-08
2.45366e-08
2.542e-09
0
0
0
0
0
0
0
0
0
0
0
0
0
0
0
0
0
0
0
0
0
0
0
0
0
0
0
0
0
0
0
0
0
0
0
0
0
0
0
0
0
0
0
0
0
3.3942e-06
0.000260859
0.000904351
0.00110137
0.00122047
0.00139952
0.00111498
0.00120287
0.00126899
0.00119918
0.000806129
0.00112273
0.000962547
0.00125482
0.00120797
0.00114913
0.00103302
0.00112748
0.00147237
0.00138379
0.000983881
0.00120984
0.00140675
0.0013024
0.00119588
0.00068496
0.00101199
0.000752564
0.000398328
8.01267e-05
6.59685e-05
4.96602e-05
4.09855e-05
4.71642e-05
5.56011e-05
5.96728e-05
7.35807e-05
6.2993e-05
3.78059e-05
2.93504e-05
2.34405e-05
1.60427e-05
2.13186e-05
6.94352e-05
0.000674433
0.000916992
9.24832e-05
5.34854e-06
8.68938e-07
3.1659e-07
7.8863e-08
4.04507e-08
3.47021e-08
2.86471e-08
1.78151e-08
0
0
0
0
0
0
0
0
0
0
0
0
0
0
0
0
0
0
0
0
0
0
0
0
0
0
0
0
0
0
0
0
0
0
0
0
0
0
0
0
0
0
0
0
0
0.00103532
0.00177842
0.00130034
0.000132623
0.000947567
0.00125223
0.0016537
0.0016038
0.00105967
0.000698365
0.000170193
0.000248629
0.000765319
0.00123237
0.00153156
0.00155498
0.00144562
0.00143772
0.00164836
0.00137815
0.00151869
0.00147495
0.00129032
0.00103986
0.000599329
0.000697723
0.00060117
0.000400355
0.000232026
0.000118279
6.72721e-05
7.65126e-05
7.01638e-05
8.72574e-05
0.000100798
8.72926e-05
9.17289e-05
9.75294e-05
5.60111e-05
3.77949e-05
2.99201e-05
1.93267e-05
2.81449e-05
9.93547e-05
0.000940811
0.000845719
5.3552e-05
3.72272e-06
7.02914e-07
2.9635e-07
6.95672e-08
3.58988e-08
3.18595e-08
2.98464e-08
2.40626e-08
0
0
0
0
0
0
0
0
0
0
0
0
0
0
0
0
0
0
0
0
0
0
0
0
0
0
0
0
0
0
0
0
0
0
0
0
0
0
0
0
0
0
0
0
0
0.00326677
0.0021402
0.00171909
0.000618187
0.000232336
0.00101221
0.00164203
0.00156399
0.000959493
8.4717e-05
7.71623e-05
1.9092e-05
8.98236e-05
0.000495878
0.00119532
0.00161307
0.00174887
0.00173664
0.0016585
0.00161193
0.00156142
0.00140589
0.00115675
0.000599495
0.000448005
0.000445909
0.000311527
0.000192442
0.000144639
0.000112134
0.000105426
9.72933e-05
0.000112967
0.000136233
0.000126701
0.000144791
0.000144077
0.000153092
0.000102707
5.00375e-05
3.69949e-05
2.87322e-05
4.21986e-05
0.000160282
0.000963467
0.000232149
1.47689e-06
2.63907e-06
5.7972e-07
2.63143e-07
4.85082e-08
9.4726e-09
2.14522e-09
3.94918e-09
8.87841e-10
0
0
0
0
0
0
0
0
0
0
0
0
0
0
0
0
0
0
0
0
0
0
0
0
0
0
0
0
0
0
0
0
0
0
0
0
0
0
0
0
0
0
0
0
0
0.0038112
0.00267564
0.00217907
0.00129172
0.000363896
0.0007397
0.00157457
0.00158612
0.000919138
0.000304132
8.84373e-05
3.13161e-05
3.67197e-05
0.000158926
0.000689875
0.00131617
0.00142403
0.00172517
0.00137425
0.00159133
0.00151261
0.00109911
0.0011424
0.000842022
0.00060613
0.000489565
0.000427113
0.000336051
0.00027027
0.000200214
0.000139476
0.000111687
0.000128806
0.000206728
0.000196595
0.000282706
0.000269225
0.000208174
0.000143446
8.64219e-05
4.76585e-05
3.90336e-05
7.38122e-05
0.00025831
0.00117368
9.89144e-05
1.77402e-05
1.89425e-06
4.838e-07
1.22972e-07
8.67567e-09
0
0
0
0
0
0
0
0
0
0
0
0
0
0
0
0
0
0
0
0
0
0
0
0
0
0
0
0
0
0
0
0
0
0
0
0
0
0
0
0
0
0
0
0
0
0
0
0
0
0.00391275
0.00340212
0.00264567
0.00205325
0.00136682
0.00154498
0.00192461
0.00185406
0.0012821
0.000833512
0.000612346
0.000621681
0.00052832
0.00089453
0.00122525
0.00142219
0.00152636
0.00153135
0.00143468
0.00144567
0.00133447
0.00121127
0.00113909
0.000976284
0.000727092
0.000427671
0.000467697
0.000462045
0.000390209
0.000284226
0.000220523
0.000215205
0.000271794
0.000234097
0.000306173
0.000420366
0.000391289
0.000304504
0.000157638
0.000118638
6.61498e-05
6.1331e-05
0.000120619
0.000335774
0.00124674
0.000194717
1.05094e-05
1.37404e-06
3.9813e-07
8.11971e-08
1.36509e-10
0
0
0
0
0
0
0
0
0
0
0
0
0
0
0
0
0
0
0
0
0
0
0
0
0
0
0
0
0
0
0
0
0
0
0
0
0
0
0
0
0
0
0
0
0
0
0
0
0
0.00396489
0.00382754
0.00338786
0.0028038
0.00227664
0.00219668
0.0022732
0.00216579
0.0018771
0.00168616
0.00163894
0.00166817
0.00177411
0.00190493
0.00212392
0.00187858
0.00148284
0.00128255
0.00128341
0.00098761
0.00120632
0.000964803
0.00117783
0.00107838
0.000904108
0.000668811
0.000584026
0.00056467
0.000498704
0.000422126
0.00036715
0.000432395
0.000375765
0.000381839
0.000526472
0.000536685
0.000427081
0.000381033
0.000225101
0.000152202
9.10299e-05
8.40101e-05
0.00021317
0.000642595
0.00110617
0.000108545
6.77224e-06
1.00594e-06
3.03456e-07
6.72497e-08
2.34633e-09
0
0
0
0
0
0
0
0
0
0
0
0
0
0
0
0
0
0
0
0
0
0
0
0
0
0
0
0
0
0
0
0
0
0
0
0
0
0
0
0
0
0
0
0
0
0
0
0
0
0.00398317
0.00394671
0.00384427
0.00356098
0.00309602
0.00274532
0.00264437
0.00249451
0.00233836
0.00229361
0.00222619
0.0020739
0.00195751
0.00196373
0.00209312
0.00215109
0.00200135
0.00151118
0.00138703
0.00105148
0.000946274
0.00118243
0.00112656
0.00105692
0.000973781
0.000851481
0.000644124
0.000691605
0.000625608
0.000547122
0.000615088
0.000613603
0.0006291
0.00064291
0.000662911
0.000654487
0.000599292
0.000477097
0.000324483
0.000191803
0.000119224
0.000122218
0.000325825
0.000640505
0.000857637
6.08903e-05
4.66791e-06
8.07571e-07
3.08097e-07
6.8567e-08
2.70072e-08
6.01155e-11
0
0
0
0
0
0
0
0
0
0
0
0
0
0
0
0
0
0
0
0
0
0
0
0
0
0
0
0
0
0
0
0
0
0
0
0
0
0
0
0
0
0
0
0
0
0
0
0
0.00397485
0.00393474
0.0039298
0.00387955
0.00367195
0.0033818
0.00319426
0.00298863
0.00278729
0.00255063
0.00217353
0.00179403
0.00156753
0.00154304
0.00172289
0.00200455
0.00221405
0.0020826
0.00172091
0.00129766
0.00124593
0.00130152
0.00112997
0.000727244
0.000755629
0.000893795
0.000857243
0.000845084
0.00078899
0.000600611
0.000590039
0.000808146
0.0008223
0.000829417
0.000619178
0.000803588
0.000715701
0.00054255
0.000419159
0.000267917
0.000178533
0.000189374
0.00047795
0.00116544
0.000862869
3.63257e-05
3.22414e-06
6.65152e-07
2.8739e-07
8.13813e-08
3.11723e-08
2.13394e-08
0
0
0
0
0
0
0
0
0
0
0
0
0
0
0
0
0
0
0
0
0
0
0
0
0
0
0
0
0
0
0
0
0
0
0
0
0
0
0
0
0
0
0
0
0
0
0
0
0.00394998
0.00389231
0.00387151
0.00386903
0.00382805
0.00368679
0.00350914
0.00325654
0.00285541
0.00224082
0.00168437
0.00131194
0.00111712
0.00110485
0.00127595
0.0016126
0.00199445
0.00236271
0.00205877
0.00177031
0.00155413
0.00138509
0.00118917
0.00101953
0.000979354
0.000933013
0.000780331
0.000984446
0.00100068
0.0009891
0.000993198
0.000619157
0.000610708
0.000949041
0.000934141
0.00090953
0.000822261
0.000678618
0.000496039
0.000319995
0.000222424
0.000262554
0.000703303
0.00135244
0.000537866
2.21846e-05
2.29962e-06
5.60358e-07
2.46026e-07
5.58245e-08
3.01098e-08
2.11947e-08
0
0
0
0
0
0
0
0
0
0
0
0
0
0
0
0
0
0
0
0
0
0
0
0
0
0
0
0
0
0
0
0
0
0
0
0
0
0
0
0
0
0
0
0
0
0
0
0
0.00391055
0.00382418
0.00377743
0.00374491
0.00369064
0.00363525
0.00338961
0.00292062
0.00219577
0.00153771
0.00108134
0.00083517
0.000730904
0.000746925
0.000903764
0.00122052
0.0016614
0.00205292
0.00230521
0.00199426
0.00152904
0.0014098
0.00120739
0.00110026
0.00104533
0.00101777
0.0010573
0.0011423
0.00117534
0.00116231
0.00114147
0.000737276
0.00107196
0.00106553
0.0010495
0.00102205
0.000839629
0.000735976
0.000568368
0.000374665
0.000278471
0.00033523
0.000926352
0.0014111
0.000307392
1.3889e-05
1.71125e-06
4.83972e-07
1.36404e-07
4.40828e-08
2.96716e-08
1.02117e-08
0
0
0
0
0
0
0
0
0
0
0
0
0
0
0
0
0
0
0
0
0
0
0
0
0
0
0
0
0
0
0
0
0
0
0
0
0
0
0
0
0
0
0
0
0
0
0
0
0.0038539
0.00373391
0.00365312
0.00361344
0.00354669
0.0033158
0.00276533
0.0020226
0.00136211
0.000886161
0.000619099
0.000495704
0.000457389
0.000491245
0.000623124
0.000899419
0.00131708
0.00177862
0.00222053
0.00215298
0.00186892
0.00153795
0.00122806
0.00118648
0.0011708
0.000979042
0.000976733
0.00129619
0.00131672
0.00129817
0.00125802
0.00120634
0.00117942
0.0011649
0.00115709
0.00112334
0.00098167
0.000797195
0.000634621
0.000436005
0.000350518
0.000486316
0.00116011
0.000943201
0.000171124
8.90081e-06
1.29586e-06
4.01295e-07
9.44557e-08
3.68184e-08
1.81487e-08
0
0
0
0
0
0
0
0
0
0
0
0
0
0
0
0
0
0
0
0
0
0
0
0
0
0
0
0
0
0
0
0
0
0
0
0
0
0
0
0
0
0
0
0
0
0
0
0
0
0.00377701
0.00361848
0.00354872
0.00346727
0.00322294
0.00265673
0.00190216
0.00122322
0.000756619
0.000479637
0.000341756
0.000284287
0.000278837
0.00032018
0.000429269
0.000651668
0.00102038
0.00148568
0.00191642
0.00219511
0.00200201
0.00173045
0.00134257
0.00136568
0.00134066
0.00137601
0.00140233
0.00141566
0.00142196
0.00139408
0.00134575
0.00130083
0.00127328
0.00111531
0.00120291
0.00120717
0.00104085
0.000852773
0.000692518
0.000504161
0.000444807
0.000679854
0.001322
0.00108091
9.07358e-05
5.84792e-06
1.02198e-06
3.2397e-07
7.32167e-08
3.12821e-08
1.44084e-08
0
0
0
0
0
0
0
0
0
0
0
0
0
0
0
0
0
0
0
0
0
0
0
0
0
0
0
0
0
0
0
0
0
0
0
0
0
0
0
0
0
0
0
0
0
0
0
0
0
0.00367528
0.00349709
0.00335426
0.00304024
0.00256282
0.00186552
0.00117351
0.00070246
0.000419352
0.00026263
0.000189196
0.000162869
0.000168594
0.000209693
0.000297163
0.00047036
0.000778065
0.00120724
0.00165089
0.0020295
0.00203942
0.00185894
0.00166904
0.00155581
0.00135017
0.00153079
0.00152567
0.00123212
0.00148412
0.00145236
0.00141017
0.00137464
0.00135582
0.00135108
0.00136
0.00127362
0.00108795
0.000909283
0.000755945
0.000629802
0.000607837
0.000865171
0.00139176
0.000484999
5.14135e-05
4.09412e-06
8.38415e-07
2.42599e-07
5.85644e-08
2.41867e-08
4.78046e-12
0
0
0
0
0
0
0
0
0
0
0
0
0
0
0
0
0
0
0
0
0
0
0
0
0
0
0
0
0
0
0
0
0
0
0
0
0
0
0
0
0
0
0
0
0
0
0
0
0
0.00357471
0.00313603
0.00264122
0.00224541
0.00173466
0.00114584
0.000690709
0.000399278
0.000236933
0.000149332
0.000108422
9.62743e-05
0.000106023
0.000140069
0.000209812
0.000343261
0.000588733
0.000962297
0.00139411
0.00174278
0.00182361
0.0018978
0.0017841
0.0016798
0.00144427
0.00160805
0.00157694
0.00152798
0.00150789
0.0014814
0.00145729
0.00143749
0.00143557
0.00144362
0.00144035
0.00131842
0.00113288
0.000972305
0.000830168
0.000713914
0.000559739
0.00108133
0.00133566
0.000535173
2.90845e-05
2.87565e-06
6.87687e-07
1.74233e-07
4.63482e-08
2.01011e-08
0
0
0
0
0
0
0
0
0
0
0
0
0
0
0
0
0
0
0
0
0
0
0
0
0
0
0
0
0
0
0
0
0
0
0
0
0
0
0
0
0
0
0
0
0
0
0
0
0
0
0.00337452
0.00224394
0.00162412
0.00130057
0.000965851
0.000630749
0.000378616
0.000221665
0.000134242
8.80886e-05
6.68688e-05
6.0947e-05
7.06747e-05
9.78522e-05
0.000152006
0.000254426
0.000446069
0.000755671
0.00114613
0.00149454
0.00179414
0.00189859
0.00178986
0.00170874
0.00165932
0.00161682
0.00136293
0.00152115
0.00149956
0.00148843
0.00149034
0.00149523
0.00151698
0.00152786
0.00148184
0.0013492
0.00118378
0.0010426
0.000911978
0.000814117
0.000907741
0.00124232
0.00115738
0.000304105
1.64959e-05
2.0445e-06
5.53712e-07
1.22763e-07
3.74494e-08
1.19922e-08
0
0
0
0
0
0
0
0
0
0
0
0
0
0
0
0
0
0
0
0
0
0
0
0
0
0
0
0
0
0
0
0
0
0
0
0
0
0
0
0
0
0
0
0
0
0
0
0
0
0
0.00237501
0.00106095
0.000701112
0.000571779
0.000446347
0.000308054
0.000197878
0.000124441
7.94164e-05
5.61117e-05
4.45235e-05
4.15504e-05
5.05101e-05
7.13121e-05
0.000112689
0.000192085
0.000338971
0.000587414
0.000923354
0.00125608
0.00150454
0.00174928
0.00176249
0.00166541
0.00161954
0.00139046
0.00136156
0.00147927
0.00147049
0.00148073
0.00140265
0.00154723
0.00160547
0.00158543
0.0015083
0.00138978
0.00124398
0.00112253
0.00100476
0.000949155
0.00109873
0.00134818
0.000884909
5.74736e-05
9.70453e-06
1.4847e-06
4.52227e-07
9.48279e-08
2.77398e-08
2.72264e-09
3.16766e-10
0
0
0
0
0
0
0
0
0
0
0
0
0
0
0
0
0
0
0
0
0
0
0
0
0
0
0
0
0
0
0
0
0
0
0
0
0
0
0
0
0
0
0
0
0
0
0
0
0
3.56012e-05
6.05899e-05
8.09869e-05
9.69993e-05
0.000100874
9.04558e-05
7.26609e-05
5.46223e-05
4.04778e-05
3.26547e-05
2.81708e-05
2.77144e-05
3.51443e-05
4.9959e-05
7.91896e-05
0.000133257
0.000229351
0.000392198
0.000625763
0.00088585
0.00111384
0.00128981
0.00146178
0.00150051
0.00144736
0.00140665
0.00137923
0.00137307
0.00139386
0.00143728
0.00151447
0.00162805
0.00162059
0.00158036
0.00152968
0.00144419
0.00133963
0.00126085
0.00115212
0.00115848
0.00129521
0.00125361
0.000228784
4.49533e-05
4.17851e-06
8.52169e-07
2.29666e-07
5.35994e-08
2.97783e-10
0
0
0
0
0
0
0
0
0
0
0
0
0
0
0
0
0
0
0
0
0
0
0
0
0
0
0
0
0
0
0
0
0
0
0
0
0
0
0
0
0
0
0
0
0
0
0
0
0
0
0
3.34411e-06
7.25207e-06
1.07635e-05
1.47599e-05
1.93823e-05
2.28472e-05
2.35631e-05
2.20113e-05
2.03265e-05
1.90728e-05
1.83634e-05
1.87325e-05
2.32109e-05
3.33597e-05
5.13523e-05
8.4064e-05
0.000140158
0.000230247
0.000363336
0.000528028
0.000693478
0.000832333
0.000958018
0.00107705
0.00116154
0.00120253
0.00123819
0.00126672
0.00129966
0.00134335
0.00142368
0.00153609
0.00155156
0.00156559
0.00156157
0.00154564
0.00150251
0.00142265
0.00135554
0.00136234
0.00132902
0.000532762
6.24114e-05
1.44954e-05
1.9276e-06
4.90205e-07
1.1409e-07
1.33e-08
0
0
0
0
0
0
0
0
0
0
0
0
0
0
0
0
0
0
0
0
0
0
0
0
0
0
0
0
0
0
0
0
0
0
0
0
0
0
0
0
0
0
0
0
0
0
0
0
0
0
0
0
4.07474e-07
1.23419e-06
2.16178e-06
3.49815e-06
5.36203e-06
7.58051e-06
9.5539e-06
1.08219e-05
1.17959e-05
1.24114e-05
1.28921e-05
1.35433e-05
1.58707e-05
2.26684e-05
3.42357e-05
5.34663e-05
8.50067e-05
0.000133556
0.000202937
0.00029261
0.00039039
0.000490245
0.000584783
0.000687402
0.000793313
0.000900228
0.00099785
0.00106678
0.00112658
0.00118409
0.00128113
0.00133893
0.00149002
0.00154032
0.00158122
0.00164187
0.00168085
0.00154787
0.00148013
0.00134784
0.00100598
0.000340935
5.84413e-05
5.05881e-06
9.68036e-07
2.65802e-07
6.46378e-08
3.36982e-11
0
0
0
0
0
0
0
0
0
0
0
0
0
0
0
0
0
0
0
0
0
0
0
0
0
0
0
0
0
0
0
0
0
0
0
0
0
0
0
0
0
0
0
0
0
0
0
0
0
0
0
0
6.7905e-08
2.71592e-07
6.30502e-07
1.26532e-06
2.35038e-06
3.81669e-06
5.35382e-06
6.58622e-06
7.66247e-06
8.49638e-06
9.1029e-06
9.76379e-06
1.12552e-05
1.55524e-05
2.31559e-05
3.47541e-05
5.23911e-05
7.79872e-05
0.000113102
0.000158626
0.000213582
0.000276963
0.000347813
0.000431656
0.00052875
0.000643348
0.000744137
0.000848408
0.000976573
0.00108356
0.00119465
0.00120184
0.00140139
0.00148807
0.00159706
0.00172628
0.00171513
0.00157165
0.00139548
0.00101258
0.00047412
0.000122566
1.59414e-05
2.12212e-06
5.43762e-07
1.39933e-07
3.28307e-08
0
0
0
0
0
0
0
0
0
0
0
0
0
0
0
0
0
0
0
0
0
0
0
0
0
0
0
0
0
0
0
0
0
0
0
0
0
0
0
0
0
0
0
0
0
0
0
0
0
0
0
0
0
0
8.59693e-08
3.02212e-07
7.84658e-07
1.58636e-06
2.66377e-06
3.8118e-06
4.73696e-06
5.30546e-06
5.93034e-06
6.30853e-06
6.61333e-06
8.08913e-06
1.10712e-05
1.58641e-05
2.33234e-05
3.37901e-05
4.80935e-05
6.70634e-05
9.19152e-05
0.00012407
0.000164937
0.000215642
0.000282519
0.000366788
0.000472922
0.000588266
0.000730555
0.000878207
0.000990536
0.0010872
0.00108089
0.0013071
0.00142975
0.00160218
0.00176132
0.00159869
0.0013951
0.00107484
0.0004845
0.000140016
3.27512e-05
4.63444e-06
9.37748e-07
2.54428e-07
7.0944e-08
6.3178e-10
0
0
0
0
0
0
0
0
0
0
0
0
0
0
0
0
0
0
0
0
0
0
0
0
0
0
0
0
0
0
0
0
0
0
0
0
0
0
0
0
0
0
0
0
0
0
0
0
0
0
0
0
0
0
2.77428e-08
1.9101e-07
5.50863e-07
1.16605e-06
1.97062e-06
2.81677e-06
3.48912e-06
3.7333e-06
4.05901e-06
4.17195e-06
4.75802e-06
6.45917e-06
8.9731e-06
1.2672e-05
1.79755e-05
2.48554e-05
3.35708e-05
4.5159e-05
6.00443e-05
8.06282e-05
0.000109129
0.000148836
0.00020475
0.000281947
0.000386164
0.000504736
0.000656881
0.000797638
0.000890245
0.000960439
0.00101115
0.00124364
0.00138293
0.00156097
0.00155179
0.00133245
0.00098818
0.000622792
0.000141404
3.50197e-05
7.57011e-06
1.63341e-06
4.55557e-07
1.15359e-07
1.47021e-08
0
0
0
0
0
0
0
0
0
0
0
0
0
0
0
0
0
0
0
0
0
0
0
0
0
0
0
0
0
0
0
0
0
0
0
0
0
0
0
0
0
0
0
0
0
0
0
0
0
0
0
0
0
0
0
3.17049e-09
9.58469e-08
2.97943e-07
6.81209e-07
1.22962e-06
1.79019e-06
2.2476e-06
2.4097e-06
2.59358e-06
2.87745e-06
3.86871e-06
5.25572e-06
7.44449e-06
1.05779e-05
1.46246e-05
1.9803e-05
2.61007e-05
3.38725e-05
4.4189e-05
5.90344e-05
8.11501e-05
0.000115487
0.000165732
0.000242212
0.000346576
0.000464996
0.000605918
0.00071869
0.000774342
0.000845725
0.000965595
0.0010638
0.00116015
0.0012818
0.00124124
0.00090935
0.000481436
0.000231186
3.31746e-05
8.41461e-06
2.45643e-06
6.74596e-07
1.90143e-07
5.85699e-08
0
0
0
0
0
0
0
0
0
0
0
0
0
0
0
0
0
0
0
0
0
0
0
0
0
0
0
0
0
0
0
0
0
0
0
0
0
0
0
0
0
0
0
0
0
0
0
0
0
0
0
0
0
0
0
0
0
3.00582e-08
1.08549e-07
2.88918e-07
5.994e-07
9.67296e-07
1.21303e-06
1.2707e-06
1.52651e-06
1.99218e-06
2.92555e-06
4.03636e-06
5.89173e-06
8.79158e-06
1.26572e-05
1.75866e-05
2.32924e-05
2.98538e-05
3.85472e-05
5.08972e-05
7.09923e-05
0.000103154
0.000152761
0.000230349
0.000333476
0.0004432
0.00055305
0.000629358
0.000702706
0.000725602
0.000743101
0.000752677
0.00082708
0.000936222
0.0008421
0.000462137
0.000147694
5.8103e-05
8.25254e-06
2.74619e-06
8.61828e-07
2.97962e-07
9.08118e-08
2.87669e-08
0
0
0
0
0
0
0
0
0
0
0
0
0
0
0
0
0
0
0
0
0
0
0
0
0
0
0
0
0
0
0
0
0
0
0
0
0
0
0
0
0
0
0
0
0
0
0
0
0
0
0
0
0
0
0
0
0
0
4.18385e-08
1.21778e-07
2.87967e-07
5.60551e-07
7.83487e-07
7.32029e-07
7.69145e-07
1.26872e-06
2.01304e-06
2.87682e-06
4.67705e-06
7.82685e-06
1.18497e-05
1.68563e-05
2.2453e-05
2.85347e-05
3.64633e-05
4.77917e-05
6.67803e-05
9.7893e-05
0.000146815
0.000223299
0.000323028
0.000424043
0.000503637
0.00056645
0.00057153
0.000543884
0.000503564
0.000468217
0.000503625
0.000571286
0.000454393
0.000163026
3.5407e-05
1.26185e-05
2.88e-06
9.27735e-07
3.70832e-07
1.11834e-07
4.53147e-08
0
0
0
0
0
0
0
0
0
0
0
0
0
0
0
0
0
0
0
0
0
0
0
0
0
0
0
0
0
0
0
0
0
0
0
0
0
0
0
0
0
0
0
0
0
0
0
0
0
0
0
0
0
0
0
0
0
0
0
1.32958e-08
4.14198e-08
1.15245e-07
2.74809e-07
4.64608e-07
4.32106e-07
3.59364e-07
7.28071e-07
1.30034e-06
2.18808e-06
3.87624e-06
6.83399e-06
1.08633e-05
1.59527e-05
2.16001e-05
2.75451e-05
3.49124e-05
4.55617e-05
6.34829e-05
9.31867e-05
0.000139423
0.000209341
0.0002997
0.000396395
0.000457457
0.000443552
0.000394321
0.000344009
0.000282079
0.000230144
0.000237372
0.000267927
0.000188923
4.72417e-05
8.88577e-06
3.80918e-06
1.0624e-06
3.9973e-07
1.33142e-07
5.20116e-08
3.43031e-10
0
0
0
0
0
0
0
0
0
0
0
0
0
0
0
0
0
0
0
0
0
0
0
0
0
0
0
0
0
0
0
0
0
0
0
0
0
0
0
0
0
0
0
0
0
0
0
0
0
0
0
0
0
0
0
0
0
0
0
0
1.25266e-08
3.74111e-08
1.06974e-07
2.37053e-07
2.41846e-07
1.63857e-07
3.68351e-07
8.5451e-07
1.6627e-06
3.1209e-06
5.78901e-06
9.6419e-06
1.46065e-05
2.02254e-05
2.60869e-05
3.28865e-05
4.26327e-05
5.88697e-05
8.49326e-05
0.000126023
0.000184616
0.000256395
0.00031283
0.000317753
0.000280662
0.000231204
0.000179944
0.000128435
8.77402e-05
8.65355e-05
9.12545e-05
6.00017e-05
1.28401e-05
3.29009e-06
1.30579e-06
4.64698e-07
1.51317e-07
6.15319e-08
9.91214e-10
0
0
0
0
0
0
0
0
0
0
0
0
0
0
0
0
0
0
0
0
0
0
0
0
0
0
0
0
0
0
0
0
0
0
0
0
0
0
0
0
0
0
0
0
0
0
0
0
0
0
0
0
0
0
0
0
0
0
0
0
0
0
1.0881e-08
3.38928e-08
1.01926e-07
1.2759e-07
9.2453e-08
1.61577e-07
5.46572e-07
1.24193e-06
2.44053e-06
4.70138e-06
8.18124e-06
1.27769e-05
1.81638e-05
2.3775e-05
2.98873e-05
3.82969e-05
5.15461e-05
7.40937e-05
0.00010785
0.000148981
0.000188205
0.000207869
0.000194123
0.000157496
0.000114446
7.86787e-05
5.46833e-05
3.08611e-05
2.4784e-05
2.56201e-05
1.58814e-05
4.127e-06
1.26024e-06
5.15639e-07
1.91508e-07
7.63543e-08
1.41466e-08
0
0
0
0
0
0
0
0
0
0
0
0
0
0
0
0
0
0
0
0
0
0
0
0
0
0
0
0
0
0
0
0
0
0
0
0
0
0
0
0
0
0
0
0
0
0
0
0
0
0
0
0
0
0
0
0
0
0
0
0
0
0
0
0
0
3.7732e-08
6.55923e-08
4.5934e-08
8.50507e-08
2.96392e-07
8.59122e-07
1.77636e-06
3.58783e-06
6.55247e-06
1.05593e-05
1.54419e-05
2.05339e-05
2.5747e-05
3.24673e-05
4.33897e-05
6.14055e-05
8.35744e-05
0.000106806
0.000124622
0.000126647
0.000107103
7.65181e-05
4.8828e-05
3.10507e-05
2.10635e-05
1.10624e-05
6.86374e-06
6.71459e-06
4.28225e-06
1.45098e-06
4.99085e-07
2.03037e-07
8.29316e-08
2.46761e-08
0
0
0
0
0
0
0
0
0
0
0
0
0
0
0
0
0
0
0
0
0
0
0
0
0
0
0
0
0
0
0
0
0
0
0
0
0
0
0
0
0
0
0
0
0
0
0
0
0
0
0
0
0
0
0
0
0
0
0
0
0
0
0
0
0
0
5.87844e-09
2.37841e-08
2.2424e-08
4.11926e-08
1.34081e-07
5.05846e-07
1.20901e-06
2.51395e-06
4.81871e-06
8.10444e-06
1.21346e-05
1.64947e-05
2.08682e-05
2.56455e-05
3.46683e-05
4.59901e-05
5.8351e-05
6.767e-05