/*--------------------------------*- C++ -*----------------------------------*\
  =========                 |
  \\      /  F ield         | OpenFOAM: The Open Source CFD Toolbox
   \\    /   O peration     | Website:  https://openfoam.org
    \\  /    A nd           | Version:  6
     \\/     M anipulation  |
\*---------------------------------------------------------------------------*/
FoamFile
{
    version     2.0;
    format      ascii;
    class       volScalarField;
    location    "0.005";
    object      p;
}
// * * * * * * * * * * * * * * * * * * * * * * * * * * * * * * * * * * * * * //

dimensions      [1 -1 -2 0 0 0 0];

internalField   nonuniform List<scalar> 
8000
(
99364
99874.4
100343
100557
100445
100465
100609
100661
100659
101193
100299
100178
97813
101624
101770
99692.9
97729.9
99254
103430
100851
100512
102424
100834
100436
100627
100303
100309
99655.9
99463.8
100828
101241
101092
100756
100699
100751
100389
100356
100937
101363
101188
101071
101655
100836
100120
100595
102337
103153
101113
101293
100736
100726
100474
100603
100630
100610
100596
100581
100550
100498
100434
100369
100306
100247
100194
100149
100114
100086
100059
100029
99993.6
99954.5
99916.3
99882.8
99855.8
99835.4
99820.3
99809.3
99801.4
99796.2
99793.4
99793.3
99796.1
99802.2
99811.6
99824.1
99839.3
99856.5
99875
99893.8
99911.9
99928.4
99942.6
99954.2
99963.3
99970.2
99975.2
99979
99982.2
99985.4
99988.9
99392.3
99889.3
100353
100573
100443
100449
100581
100609
100678
101159
100274
100165
97660.4
101468
101671
99684.2
97803.2
99065
103487
100854
100671
102236
100800
100432
100626
100303
100318
99638.2
99421.9
100844
101242
101076
100762
100709
100755
100389
100345
100947
101370
101199
101068
101680
100846
100129
100619
102335
103139
101058
101288
100729
100694
100473
100604
100630
100610
100596
100581
100550
100498
100434
100369
100306
100247
100194
100149
100114
100086
100059
100029
99993.6
99954.5
99916.3
99882.8
99855.9
99835.4
99820.3
99809.3
99801.4
99796.2
99793.4
99793.3
99796.1
99802.2
99811.6
99824.1
99839.3
99856.5
99874.9
99893.8
99911.9
99928.4
99942.6
99954.2
99963.3
99970.2
99975.2
99979
99982.2
99985.4
99988.9
99451.6
99922.2
100377
100610
100435
100413
100526
100506
100722
101086
100218
100146
97692.6
101158
101480
99678.9
98019.9
99012.4
103300
100847
100971
101835
100735
100443
100624
100303
100337
99604.6
99327.3
100880
101243
101044
100775
100729
100767
100387
100321
100948
101356
101222
101120
101730
100869
100147
100669
102329
103115
100929
101275
100712
100622
100469
100604
100631
100610
100597
100581
100550
100498
100434
100369
100306
100247
100194
100149
100114
100086
100059
100029
99993.6
99954.5
99916.3
99882.8
99855.9
99835.4
99820.3
99809.3
99801.4
99796.2
99793.4
99793.3
99796.1
99802.2
99811.6
99824.1
99839.3
99856.5
99874.9
99893.7
99911.9
99928.4
99942.6
99954.2
99963.3
99970.2
99975.2
99979
99982.1
99985.3
99988.9
99541.8
99971.7
100411
100664
100418
100360
100460
100379
100796
100987
100122
100148
99251.2
100840
101244
99701.2
98514.6
100369
101481
100856
101175
101035
100690
100438
100618
100309
100360
99558.2
99169.8
100927
101244
101004
100795
100759
100785
100385
100287
100976
101360
101255
101158
101804
100904
100173
100764
102321
103073
100704
101253
100687
100520
100465
100604
100632
100610
100597
100581
100550
100498
100434
100369
100306
100247
100194
100149
100114
100086
100059
100029
99993.6
99954.5
99916.3
99882.8
99855.9
99835.4
99820.3
99809.3
99801.4
99796.2
99793.4
99793.3
99796.1
99802.2
99811.6
99824.1
99839.3
99856.5
99874.9
99893.7
99911.9
99928.4
99942.6
99954.2
99963.3
99970.2
99975.2
99979
99982.1
99985.3
99988.9
99664.2
100038
100455
100735
100385
100291
100408
100269
100895
100885
99955
100258
98381.7
101229
101012
99788.9
99441.2
99923.3
101810
100951
100051
99884.4
100658
100401
100604
100317
100396
99502.8
98928.4
100982
101242
100971
100826
100806
100812
100380
100241
100997
101342
101299
101195
101903
100956
100208
100924
102308
102999
100344
101214
100659
100400
100460
100605
100631
100610
100597
100581
100550
100498
100434
100369
100306
100247
100194
100149
100114
100086
100059
100029
99993.6
99954.6
99916.3
99882.8
99855.9
99835.4
99820.3
99809.3
99801.5
99796.2
99793.4
99793.3
99796.1
99802.2
99811.6
99824.1
99839.3
99856.5
99874.9
99893.7
99911.8
99928.3
99942.5
99954.2
99963.3
99970.1
99975.2
99978.9
99982.1
99985.3
99988.9
99820.4
100121
100505
100814
100339
100217
100403
100237
101007
100748
99621.6
100369
98965.4
101520
100800
99991.2
100524
101107
100805
100969
102057
98772.4
100776
100326
100581
100329
100438
99446.1
98588
101024
101235
100965
100868
100864
100852
100368
100177
101018
101338
101355
101237
102028
101057
100250
101183
102293
102884
99817.2
101159
100630
100295
100454
100606
100630
100610
100597
100581
100550
100498
100434
100369
100306
100247
100194
100149
100114
100086
100059
100029
99993.6
99954.6
99916.4
99882.8
99855.9
99835.4
99820.3
99809.3
99801.5
99796.2
99793.5
99793.3
99796.1
99802.2
99811.6
99824.1
99839.2
99856.4
99874.9
99893.7
99911.8
99928.3
99942.5
99954.1
99963.2
99970.1
99975.1
99978.9
99982.1
99985.3
99988.9
100011
100222
100562
100893
100287
100148
100492
100342
101099
100627
99012.9
100588
99724.2
101651
100649
100413
100235
102055
100005
101032
100299
98727.4
100745
100157
100549
100348
100489
99439.1
99159.7
101004
101222
101037
100931
100932
100902
100378
100101
101041
101343
101423
101288
102173
101184
100295
101613
102271
102698
99122.2
101093
100611
100272
100451
100607
100630
100609
100597
100581
100550
100498
100434
100369
100306
100247
100194
100149
100114
100086
100059
100029
99993.6
99954.6
99916.4
99882.9
99855.9
99835.4
99820.3
99809.3
99801.5
99796.3
99793.5
99793.3
99796.1
99802.2
99811.6
99824.1
99839.2
99856.4
99874.8
99893.6
99911.8
99928.3
99942.5
99954.1
99963.2
99970.1
99975.1
99978.9
99982.1
99985.3
99988.9
100233
100344
100624
100952
100242
100109
100736
100543
101106
100555
97873.2
101014
100542
101613
100555
101291
100177
100717
99544.8
101196
99926.7
99928
100875
100053
100509
100381
100534
99413.9
99515.3
100875
101199
101077
100997
101009
100967
100385
100011
101068
101357
101504
101348
102320
101278
100336
102313
102242
102413
98297.4
101021
100605
100437
100451
100608
100630
100609
100598
100581
100550
100498
100434
100368
100306
100247
100194
100149
100114
100086
100059
100029
99993.6
99954.6
99916.4
99882.9
99855.9
99835.5
99820.4
99809.4
99801.5
99796.3
99793.5
99793.3
99796.1
99802.2
99811.6
99824.1
99839.2
99856.4
99874.8
99893.6
99911.7
99928.2
99942.4
99954
99963.1
99970
99975.1
99978.9
99982.1
99985.3
99988.9
100480
100507
100687
100969
100251
100119
101226
100350
100968
100655
99441.7
101889
101788
101471
100446
102958
100262
99663.5
99517.4
101557
100015
99392.2
101021
100030
100454
100420
100553
99386.8
99730.1
100515
101165
101018
101058
101098
101048
100390
99918
101097
101382
101595
101422
102443
101390
100360
102105
102209
102004
97330.6
100954
100614
100974
100453
100609
100630
100608
100599
100581
100550
100497
100434
100368
100305
100247
100194
100149
100114
100086
100059
100029
99993.7
99954.6
99916.4
99882.9
99856
99835.5
99820.4
99809.4
99801.6
99796.3
99793.5
99793.3
99796.1
99802.2
99811.6
99824.1
99839.2
99856.3
99874.8
99893.5
99911.7
99928.2
99942.4
99954
99963.1
99970
99975
99978.8
99982
99985.3
99988.9
100732
100552
100748
100939
100400
100190
102121
100252
100703
100892
100452
97898.9
104409
101288
100353
106391
100406
100063
100068
102219
100209
99864.9
100800
100059
100403
100479
100487
99418.5
99865.8
100881
101126
100766
101091
101193
101141
100394
99842.7
101134
101423
101689
101518
102497
101509
100366
101416
102163
101439
96519
100909
100616
102069
100456
100611
100630
100607
100600
100581
100549
100497
100434
100368
100305
100247
100193
100149
100114
100086
100059
100029
99993.7
99954.6
99916.4
99882.9
99856
99835.5
99820.4
99809.4
99801.6
99796.3
99793.5
99793.4
99796.2
99802.2
99811.6
99824
99839.2
99856.3
99874.7
99893.5
99911.6
99928.1
99942.3
99953.9
99963
99969.9
99975
99978.8
99982
99985.3
99988.9
100963
100620
100797
100945
100788
100312
103860
100260
100366
101229
101464
99363.4
101915
101201
100360
102864
100612
100451
99016.5
103190
100378
99950
100630
100120
100368
100572
100219
99604.3
99952.1
100871
101070
101048
101033
101321
101246
100392
99827.3
101182
101490
101774
101632
102430
101624
100322
101115
102117
100666
96672.6
100892
100586
100887
100457
100612
100630
100605
100601
100581
100549
100497
100433
100368
100305
100246
100193
100149
100114
100086
100059
100029
99993.7
99954.6
99916.4
99882.9
99856
99835.6
99820.5
99809.5
99801.6
99796.4
99793.6
99793.4
99796.2
99802.2
99811.6
99824
99839.1
99856.3
99874.7
99893.4
99911.5
99928
99942.2
99953.8
99962.9
99969.8
99974.9
99978.7
99982
99985.2
99988.9
101130
100690
100833
100898
101351
100413
102245
100358
100099
101679
101515
99980.7
100946
101090
100374
101558
100695
100769
98888.8
104568
100473
100055
100512
100163
100363
100712
99580.6
100094
100006
100737
100997
101127
100970
101446
101341
100389
99971.3
101260
101591
101823
101757
102099
101698
100235
101002
102077
99850.8
99717
100909
100580
100376
100459
100614
100630
100603
100602
100581
100549
100497
100433
100368
100305
100246
100193
100149
100114
100086
100059
100029
99993.7
99954.7
99916.5
99883
99856.1
99835.6
99820.5
99809.5
99801.7
99796.4
99793.6
99793.4
99796.2
99802.2
99811.6
99824
99839.1
99856.2
99874.6
99893.4
99911.5
99927.9
99942.1
99953.8
99962.9
99969.8
99974.8
99978.7
99981.9
99985.2
99988.9
101184
100754
100853
100829
101266
100511
101552
100455
100497
101733
101471
100228
100627
100922
100386
101001
100673
100945
98910.5
102987
100569
100138
100435
100180
100380
100923
99185.2
100194
100031
100576
100907
101099
100940
101562
101392
100386
100184
101356
101744
101802
101885
102559
101641
100073
100985
102051
99293.1
98721
100918
100570
100226
100462
100616
100630
100601
100604
100581
100549
100497
100433
100368
100305
100246
100193
100149
100114
100086
100059
100029
99993.7
99954.7
99916.5
99883
99856.1
99835.7
99820.6
99809.6
99801.7
99796.4
99793.6
99793.4
99796.2
99802.2
99811.6
99824
99839.1
99856.2
99874.6
99893.3
99911.4
99927.9
99942
99953.7
99962.8
99969.7
99974.8
99978.6
99981.9
99985.2
99988.9
101120
100792
100853
100785
101249
100604
101206
100507
100202
101573
101450
100344
100555
100763
100393
100729
100626
101033
98310.6
101938
100622
100195
100389
100199
100407
101235
99101
99827.5
100037
100427
100807
101019
100952
101653
101353
100382
100436
101466
101965
101649
102002
102698
101557
99769.9
101017
102038
100239
98346.3
100929
100547
100218
100466
100618
100630
100599
100606
100581
100549
100496
100433
100367
100305
100246
100193
100149
100114
100086
100059
100029
99993.7
99954.7
99916.5
99883
99856.1
99835.7
99820.6
99809.6
99801.8
99796.5
99793.7
99793.5
99796.2
99802.2
99811.5
99824
99839
99856.1
99874.5
99893.2
99911.3
99927.8
99941.9
99953.6
99962.7
99969.6
99974.7
99978.6
99981.9
99985.2
99988.9
101002
100802
100839
100789
101247
100664
101008
100539
100280
101447
101534
100400
100573
100622
100395
100583
100588
101131
99543.2
101690
100644
100228
100367
100222
100436
100866
99628
99727.3
100043
100313
100707
100920
101019
101670
101137
100377
100713
101595
102272
101202
102067
102712
101484
99281.5
101067
102031
101444
98549.2
100947
100513
100252
100471
100620
100630
100597
100608
100581
100549
100496
100433
100367
100305
100246
100193
100149
100114
100086
100060
100029
99993.8
99954.7
99916.5
99883.1
99856.2
99835.8
99820.7
99809.7
99801.8
99796.5
99793.7
99793.5
99796.2
99802.2
99811.5
99823.9
99839
99856.1
99874.4
99893.1
99911.2
99927.7
99941.8
99953.5
99962.6
99969.5
99974.6
99978.5
99981.8
99985.1
99988.9
100948
100781
100831
100819
101167
100753
100870
100558
100404
101351
101789
100426
100632
100481
100389
100481
100571
101237
100454
101411
100637
100229
100362
100253
100482
100617
99979.1
99764.9
100060
100229
100602
100788
101179
101499
100385
100374
101055
101758
102856
101705
101969
102690
101434
100271
101122
102009
102553
99129.8
100979
100467
100287
100476
100622
100630
100596
100608
100581
100548
100496
100432
100367
100304
100246
100193
100149
100114
100086
100060
100029
99993.8
99954.7
99916.6
99883.1
99856.2
99835.8
99820.7
99809.7
99801.9
99796.6
99793.8
99793.5
99796.3
99802.2
99811.5
99823.9
99838.9
99856
99874.3
99893
99911.1
99927.5
99941.7
99953.3
99962.5
99969.4
99974.5
99978.4
99981.7
99985.1
99988.9
100938
100801
100842
100861
100962
100868
100789
100584
100551
101230
100945
100498
100692
100385
100385
100420
100612
101358
101162
101136
100576
100224
100378
100295
100556
100468
100107
99887.1
100092
100185
100521
100628
101499
100679
101039
100408
101403
101894
104199
101762
101781
102052
101402
100970
101181
101961
103180
99838.2
101016
100417
100293
100480
100625
100630
100597
100606
100581
100548
100495
100432
100367
100304
100246
100193
100149
100114
100086
100060
100030
99993.8
99954.8
99916.6
99883.2
99856.3
99835.9
99820.8
99809.8
99801.9
99796.7
99793.8
99793.6
99796.3
99802.3
99811.5
99823.9
99838.9
99855.9
99874.2
99892.9
99910.9
99927.4
99941.5
99953.2
99962.3
99969.3
99974.4
99978.3
99981.7
99985
99988.8
100930
100824
100849
100883
100313
100950
100744
100607
100640
101082
100540
100557
100647
100437
100387
100386
100757
101427
101366
100905
100457
100226
100411
100342
100637
100399
100120
100009
100131
100200
100476
100462
102116
101327
101091
100441
101378
101788
102678
101688
101556
102901
101390
101382
101232
101874
103227
100417
101042
100376
100275
100486
100628
100630
100600
100603
100581
100548
100495
100431
100366
100304
100246
100193
100149
100114
100086
100060
100030
99993.9
99954.8
99916.7
99883.2
99856.4
99836
99820.9
99809.9
99802
99796.7
99793.9
99793.6
99796.3
99802.3
99811.5
99823.8
99838.8
99855.8
99874.1
99892.7
99910.8
99927.2
99941.4
99953
99962.1
99969.1
99974.3
99978.2
99981.6
99985
99988.8
100917
100830
100847
100896
100888
100907
100714
100627
100695
100999
100562
100582
100590
100887
100398
100359
100725
101325
100472
100685
100266
100265
100454
100384
100719
100378
100106
100104
100169
100244
100439
100279
103289
101350
100974
100458
101309
101112
101894
101583
101323
103135
101347
101662
101276
101734
102967
100866
101050
100340
100252
100492
100631
100631
100602
100600
100580
100547
100495
100431
100366
100304
100245
100193
100149
100114
100086
100060
100030
99993.9
99954.9
99916.7
99883.3
99856.5
99836.1
99821
99810
99802.1
99796.8
99794
99793.7
99796.4
99802.3
99811.5
99823.8
99838.7
99855.7
99874
99892.6
99910.6
99927
99941.2
99952.8
99962
99968.9
99974.1
99978.1
99981.5
99984.9
99988.8
100895
100823
100839
100896
101042
100847
100696
100646
100730
100957
100659
100609
100519
100389
100392
100334
100647
100802
100791
100525
99962.4
100313
100509
100423
100791
100387
100097
100177
100198
100298
100425
100033
101924
101221
100817
100464
101213
101721
101499
101484
101177
103147
101246
101836
101315
101588
102643
101206
101039
100308
100237
100500
100633
100630
100604
100597
100580
100547
100494
100430
100365
100303
100245
100193
100149
100114
100086
100060
100030
99994
99954.9
99916.8
99883.4
99856.6
99836.2
99821.1
99810.1
99802.2
99796.9
99794
99793.8
99796.4
99802.3
99811.5
99823.8
99838.7
99855.6
99873.8
99892.4
99910.4
99926.8
99941
99952.6
99961.8
99968.7
99974
99978
99981.4
99984.9
99988.8
100866
100809
100827
100884
101026
100796
100689
100664
100753
100935
100762
100638
100486
100270
100390
100311
100556
101364
100865
100460
99471
100394
100577
100459
100836
100413
100094
100232
100219
100348
100419
99805.2
101228
101033
100664
100471
100965
101500
101271
101413
101400
102780
101060
101929
101363
101442
102351
101433
101006
100280
100235
100510
100636
100630
100605
100596
100580
100546
100493
100430
100365
100303
100245
100192
100148
100114
100086
100060
100030
99994
99954.9
99916.8
99883.5
99856.7
99836.3
99821.2
99810.2
99802.3
99797
99794.1
99793.8
99796.5
99802.3
99811.5
99823.7
99838.6
99855.5
99873.7
99892.2
99910.2
99926.6
99940.7
99952.4
99961.6
99968.6
99973.8
99977.8
99981.3
99984.8
99988.8
100833
100791
100813
100869
100971
100763
100689
100682
100769
100922
100841
100667
100487
100303
100397
100291
100460
101285
100827
100621
98675
100485
100662
100490
100847
100450
100129
100267
100232
100384
100416
99665.2
100840
100849
100543
100473
100283
101789
101141
101365
101662
102414
100782
101939
101421
101285
102130
101571
100954
100254
100244
100520
100638
100630
100605
100595
100579
100546
100493
100429
100365
100303
100245
100192
100148
100114
100086
100060
100030
99994.1
99955
99916.9
99883.5
99856.8
99836.4
99821.4
99810.4
99802.4
99797.1
99794.2
99793.9
99796.5
99802.3
99811.5
99823.7
99838.5
99855.4
99873.5
99892
99910
99926.4
99940.5
99952.1
99961.3
99968.4
99973.6
99977.7
99981.2
99984.8
99988.8
100799
100769
100797
100852
100917
100744
100694
100698
100781
100914
100890
100693
100510
100380
100410
100276
100372
101033
100737
100638
99524.5
100557
100758
100518
100840
100495
100182
100291
100237
100406
100403
99760.6
100621
100707
100462
100464
100019
101599
101054
101332
101882
102158
100420
101885
101498
101113
101981
101626
100887
100231
100261
100531
100639
100630
100605
100594
100579
100545
100492
100429
100364
100302
100244
100192
100148
100114
100086
100060
100030
99994.1
99955
99916.9
99883.6
99856.9
99836.5
99821.5
99810.5
99802.6
99797.2
99794.3
99794
99796.6
99802.4
99811.4
99823.6
99838.4
99855.2
99873.3
99891.8
99909.8
99926.1
99940.3
99951.9
99961.1
99968.1
99973.4
99977.5
99981.1
99984.7
99988.7
100764
100747
100780
100835
100874
100736
100701
100713
100789
100906
100912
100715
100545
100455
100424
100268
100298
100773
100633
100597
100003
100620
100846
100535
100794
100544
100238
100301
100234
100414
100395
100559
100504
100598
100416
100452
99923.9
101326
100990
101309
102048
102023
99977.3
101780
101579
100931
101886
101612
100808
100210
100283
100541
100641
100629
100605
100593
100578
100545
100492
100428
100363
100302
100244
100192
100148
100114
100086
100060
100030
99994.2
99955.1
99917
99883.7
99857
99836.7
99821.6
99810.6
99802.7
99797.3
99794.4
99794
99796.6
99802.4
99811.4
99823.6
99838.3
99855.1
99873.2
99891.6
99909.5
99925.9
99940
99951.6
99960.9
99967.9
99973.2
99977.4
99981
99984.6
99988.7
100732
100724
100763
100819
100843
100734
100710
100726
100795
100897
100912
100733
100585
100514
100438
100268
100248
100566
100536
100543
100250
100666
100880
100542
100713
100593
100289
100306
100227
100411
100385
99789
100413
100521
100399
100456
100451
101077
100942
101295
102161
102016
99456.5
101646
101632
100754
101822
101547
100723
100193
100307
100551
100642
100629
100605
100593
100577
100544
100491
100427
100363
100301
100244
100192
100148
100114
100087
100060
100030
99994.2
99955.1
99917
99883.8
99857.1
99836.8
99821.8
99810.8
99802.8
99797.5
99794.5
99794.1
99796.7
99802.4
99811.4
99823.5
99838.2
99854.9
99873
99891.4
99909.3
99925.6
99939.7
99951.4
99960.6
99967.7
99973
99977.2
99980.8
99984.5
99988.7
100703
100702
100746
100805
100822
100736
100721
100739
100800
100885
100894
100748
100623
100557
100452
100274
100218
100422
100457
100493
100380
100691
100771
100537
100597
100641
100322
100302
100218
100399
100367
99658.4
100360
100471
100404
100460
100611
100883
100908
101284
102221
102104
98865.2
101511
101636
100601
101767
101447
100634
100179
100330
100560
100643
100628
100604
100592
100577
100544
100490
100427
100362
100301
100243
100192
100148
100114
100087
100060
100030
99994.3
99955.2
99917.1
99883.9
99857.2
99836.9
99821.9
99810.9
99803
99797.6
99794.6
99794.2
99796.7
99802.4
99811.4
99823.4
99838.1
99854.8
99872.8
99891.2
99909
99925.3
99939.4
99951.1
99960.3
99967.4
99972.8
99977
99980.7
99984.5
99988.7
100677
100682
100730
100792
100807
100742
100731
100752
100805
100872
100873
100759
100658
100588
100467
100287
100208
100334
100400
100452
100444
100696
100291
100526
100446
100683
100343
100297
100209
100382
100340
99748.9
100341
100443
100417
100463
100623
100747
100885
101273
102220
102260
98210.7
101447
101588
100494
101695
101325
100548
100170
100352
100568
100643
100628
100604
100592
100577
100543
100489
100426
100362
100300
100243
100191
100148
100114
100087
100060
100030
99994.3
99955.2
99917.2
99884
99857.3
99837.1
99822.1
99811
99803.1
99797.7
99794.7
99794.3
99796.8
99802.4
99811.4
99823.4
99838
99854.6
99872.6
99890.9
99908.7
99925
99939.1
99950.8
99960
99967.2
99972.6
99976.8
99980.6
99984.4
99988.6
100655
100663
100715
100781
100798
100748
100742
100764
100808
100857
100854
100769
100688
100611
100483
100306
100212
100289
100362
100422
100471
100688
100756
100527
100256
100714
100357
100290
100198
100360
100316
99897.1
100341
100427
100433
100465
100593
100658
100868
101258
102159
102426
97515.1
101565
101503
100434
101613
101194
100468
100166
100371
100575
100643
100627
100603
100591
100576
100542
100489
100425
100361
100300
100243
100191
100148
100114
100087
100061
100030
99994.4
99955.3
99917.2
99884.1
99857.5
99837.2
99822.2
99811.2
99803.3
99797.8
99794.8
99794.4
99796.8
99802.5
99811.4
99823.3
99837.9
99854.5
99872.4
99890.7
99908.4
99924.7
99938.8
99950.5
99959.7
99966.9
99972.3
99976.6
99980.4
99984.3
99988.6
100638
100645
100701
100770
100791
100755
100751
100773
100808
100844
100839
100777
100712
100631
100501
100329
100226
100271
100341
100402
100482
100670
100863
100527
100041
100727
100363
100281
100188
100338
100348
100041
100350
100420
100449
100467
100555
100603
100856
101234
102052
102459
96801.4
101875
101412
100417
101517
101063
100395
100166
100388
100581
100642
100626
100602
100591
100576
100541
100488
100424
100360
100299
100242
100191
100148
100114
100087
100061
100030
99994.4
99955.3
99917.3
99884.2
99857.6
99837.4
99822.4
99811.4
99803.4
99798
99794.9
99794.5
99796.9
99802.5
99811.3
99823.2
99837.8
99854.3
99872.1
99890.4
99908.1
99924.4
99938.5
99950.1
99959.4
99966.6
99972.1
99976.4
99980.3
99984.2
99988.6
100625
100630
100689
100761
100786
100761
100759
100779
100807
100833
100830
100785
100732
100649
100520
100354
100247
100271
100332
100392
100484
100648
100838
100525
99889.8
100721
100360
100271
100181
100316
100566
100156
100363
100418
100462
100469
100523
100571
100846
101203
101879
102127
96116.3
102064
101329
100438
101412
100938
100333
100169
100403
100586
100642
100625
100602
100590
100575
100541
100487
100424
100360
100299
100242
100191
100148
100114
100087
100061
100030
99994.5
99955.4
99917.4
99884.3
99857.7
99837.5
99822.6
99811.5
99803.6
99798.1
99795.1
99794.6
99797
99802.5
99811.3
99823.2
99837.6
99854.1
99871.9
99890.1
99907.8
99924.1
99938.2
99949.8
99959.1
99966.3
99971.8
99976.2
99980.1
99984.1
99988.6
100611
100612
100675
100749
100778
100768
100768
100783
100802
100820
100823
100798
100758
100676
100554
100400
100291
100290
100336
100388
100484
100614
100734
100533
100197
100712
100346
100255
100172
100274
100507
100279
100383
100422
100477
100470
100485
100545
100834
101149
101510
99906.4
95347.3
103036
101145
100514
101244
100755
100250
100181
100424
100594
100640
100623
100600
100589
100574
100539
100485
100422
100358
100298
100241
100190
100148
100114
100087
100061
100031
99994.6
99955.4
99917.5
99884.4
99858
99837.8
99822.8
99811.8
99803.8
99798.4
99795.3
99794.7
99797.1
99802.6
99811.3
99823.1
99837.4
99853.8
99871.5
99889.7
99907.3
99923.5
99937.6
99949.2
99958.6
99965.8
99971.4
99975.9
99979.9
99984
99988.5
100625
100645
100711
100765
100781
100774
100772
100780
100790
100808
100825
100818
100784
100711
100603
100467
100358
100336
100366
100407
100494
100598
100664
100555
100491
100557
100318
100240
100161
100218
100353
100331
100401
100432
100483
100469
100465
100538
100815
101078
100868
100279
99044.2
102160
100872
100663
101035
100570
100185
100211
100451
100603
100641
100620
100599
100588
100573
100537
100483
100420
100357
100296
100240
100190
100147
100114
100087
100061
100031
99994.7
99955.5
99917.6
99884.7
99858.3
99838.2
99823.3
99812.2
99804.2
99798.7
99795.6
99795
99797.2
99802.6
99811.2
99822.9
99837.1
99853.4
99870.9
99889
99906.6
99922.7
99936.7
99948.4
99957.8
99965.1
99970.8
99975.4
99979.5
99983.7
99988.4
100718
100747
100790
100804
100793
100778
100771
100772
100778
100799
100825
100831
100804
100740
100651
100535
100430
100389
100408
100446
100519
100607
100659
100585
100559
100413
100297
100232
100156
100181
100271
100339
100413
100445
100483
100467
100462
100539
100792
101033
100577
113866
93593.9
101640
100784
100783
100872
100446
100162
100251
100478
100611
100640
100618
100597
100587
100571
100535
100480
100418
100355
100295
100239
100189
100147
100114
100088
100061
100031
99994.8
99955.6
99917.8
99885
99858.7
99838.6
99823.7
99812.7
99804.6
99799.1
99795.9
99795.2
99797.4
99802.7
99811.2
99822.7
99836.8
99852.9
99870.3
99888.2
99905.7
99921.8
99935.8
99947.5
99956.9
99964.3
99970
99974.8
99979.1
99983.5
99988.4
100768
100787
100801
100792
100773
100758
100750
100749
100760
100785
100817
100833
100814
100764
100693
100598
100501
100448
100453
100491
100552
100627
100675
100618
100557
100357
100295
100231
100161
100168
100240
100339
100421
100456
100482
100467
100464
100540
100766
101025
100489
95987.5
97539.8
101776
100762
100843
100758
100369
100170
100296
100505
100619
100638
100615
100595
100586
100569
100532
100478
100415
100352
100293
100238
100188
100147
100115
100088
100062
100031
99994.9
99955.7
99918
99885.2
99859
99839.1
99824.2
99813.2
99805.1
99799.5
99796.3
99795.5
99797.6
99802.8
99811.1
99822.5
99836.4
99852.3
99869.6
99887.4
99904.8
99920.8
99934.7
99946.4
99955.9
99963.4
99969.3
99974.1
99978.6
99983.2
99988.3
100744
100748
100742
100728
100714
100705
100704
100711
100729
100759
100796
100820
100815
100781
100726
100652
100566
100505
100496
100528
100581
100644
100684
100642
100558
100372
100312
100243
100179
100176
100237
100338
100425
100464
100482
100470
100472
100541
100738
101035
100966
97770.1
101752
101622
100715
100829
100670
100324
100197
100343
100530
100625
100635
100611
100593
100584
100567
100530
100474
100412
100350
100291
100237
100187
100147
100115
100088
100062
100031
99995
99955.8
99918.1
99885.5
99859.5
99839.6
99824.8
99813.7
99805.6
99800
99796.6
99795.8
99797.8
99802.8
99811.1
99822.2
99836
99851.7
99868.9
99886.5
99903.7
99919.6
99933.6
99945.3
99954.8
99962.4
99968.4
99973.4
99978.1
99982.9
99988.2
100677
100673
100662
100650
100644
100644
100649
100663
100687
100722
100762
100796
100807
100790
100752
100694
100620
100556
100532
100554
100599
100651
100683
100653
100571
100420
100346
100271
100211
100200
100249
100340
100425
100468
100482
100472
100480
100543
100707
101024
101350
99381.6
102793
101296
100644
100765
100593
100299
100235
100387
100551
100629
100632
100608
100591
100583
100565
100526
100471
100409
100347
100289
100235
100187
100146
100115
100089
100062
100031
99995
99955.8
99918.3
99885.8
99859.9
99840.1
99825.3
99814.3
99806.2
99800.5
99797.1
99796.1
99798
99802.9
99811
99822
99835.5
99851.1
99868
99885.5
99902.6
99918.4
99932.3
99944
99953.6
99961.3
99967.5
99972.7
99977.5
99982.6
99988.1
100610
100605
100597
100590
100589
100592
100601
100616
100641
100677
100719
100761
100788
100791
100769
100724
100662
100598
100563
100570
100606
100649
100674
100656
100590
100475
100392
100313
100254
100236
100270
100345
100422
100467
100481
100476
100489
100547
100686
100973
101608
101753
102315
101007
100553
100677
100527
100292
100275
100426
100568
100630
100628
100604
100589
100581
100562
100523
100467
100405
100344
100287
100233
100186
100146
100115
100089
100063
100032
99995
99955.9
99918.4
99886.1
99860.4
99840.7
99826
99814.9
99806.7
99801
99797.5
99796.5
99798.2
99803
99810.9
99821.7
99835.1
99850.4
99867.1
99884.4
99901.3
99917.1
99930.9
99942.7
99952.3
99960.1
99966.4
99971.8
99976.9
99982.2
99988
100562
100559
100556
100554
100555
100558
100566
100579
100601
100633
100674
100720
100761
100781
100776
100745
100693
100633
100589
100582
100607
100641
100665
100658
100610
100524
100442
100363
100303
100277
100295
100352
100418
100463
100479
100479
100495
100549
100662
100888
101462
102318
101651
100749
100454
100603
100477
100298
100317
100458
100579
100630
100624
100601
100587
100579
100559
100518
100462
100401
100341
100285
100232
100185
100146
100115
100089
100063
100032
99995
99955.9
99918.5
99886.4
99860.9
99841.3
99826.6
99815.6
99807.4
99801.5
99798
99796.8
99798.5
99803.1
99810.8
99821.4
99834.5
99849.7
99866.1
99883.2
99900
99915.6
99929.4
99941.2
99950.9
99958.8
99965.3
99970.9
99976.3
99981.8
99987.9
100532
100532
100532
100534
100536
100539
100545
100555
100571
100596
100633
100679
100726
100761
100772
100756
100715
100661
100614
100594
100606
100634
100657
100658
100627
100563
100489
100413
100353
100320
100322
100359
100412
100456
100477
100482
100498
100543
100630
100786
101119
101655
101131
100482
100389
100564
100448
100311
100353
100483
100588
100628
100619
100597
100585
100577
100555
100514
100457
100397
100338
100282
100230
100183
100145
100115
100090
100063
100032
99995
99955.8
99918.6
99886.7
99861.4
99841.9
99827.3
99816.3
99808
99802.1
99798.5
99797.2
99798.7
99803.2
99810.7
99821.1
99834
99848.8
99865.1
99881.9
99898.5
99914
99927.8
99939.5
99949.3
99957.4
99964.1
99970
99975.6
99981.4
99987.8
100513
100515
100518
100521
100525
100529
100534
100540
100552
100571
100600
100642
100690
100733
100757
100756
100729
100684
100636
100607
100607
100627
100649
100656
100638
100591
100528
100458
100400
100361
100349
100368
100407
100449
100476
100486
100496
100515
100557
100637
100801
100968
100687
100269
100397
100557
100431
100326
100382
100502
100594
100626
100614
100593
100583
100574
100551
100508
100452
100392
100334
100279
100228
100182
100145
100115
100090
100064
100032
99994.9
99955.7
99918.7
99887
99861.9
99842.6
99828
99817
99808.7
99802.7
99799
99797.6
99799
99803.3
99810.6
99820.8
99833.4
99848
99863.9
99880.6
99897
99912.3
99926
99937.8
99947.6
99955.9
99962.8
99968.9
99974.8
99981
99987.6
100501
100503
100507
100512
100517
100522
100527
100532
100541
100556
100579
100613
100657
100701
100734
100746
100734
100699
100656
100622
100611
100622
100640
100651
100641
100608
100557