/*--------------------------------*- C++ -*----------------------------------*\
  =========                 |
  \\      /  F ield         | OpenFOAM: The Open Source CFD Toolbox
   \\    /   O peration     | Website:  https://openfoam.org
    \\  /    A nd           | Version:  6
     \\/     M anipulation  |
\*---------------------------------------------------------------------------*/
FoamFile
{
    version     2.0;
    format      ascii;
    class       surfaceScalarField;
    location    "0.005";
    object      phi;
}
// * * * * * * * * * * * * * * * * * * * * * * * * * * * * * * * * * * * * * //

dimensions      [1 0 -1 0 0 0 0];

internalField   nonuniform List<scalar> 
15820
(
4.12073e-07
2.87858e-08
4.1743e-07
1.97836e-08
4.19328e-07
8.95509e-09
4.18054e-07
2.58142e-09
4.15365e-07
8.80713e-09
4.15574e-07
8.55467e-09
4.0947e-07
2.61023e-08
4.19492e-07
4.14197e-08
4.14934e-07
4.87012e-09
4.17735e-07
-3.72686e-09
4.20897e-07
1.52672e-08
4.28777e-07
1.35918e-08
4.07548e-07
1.76082e-07
4.18652e-07
3.90396e-08
4.32214e-07
1.74761e-08
4.43287e-07
3.4356e-08
4.01814e-07
3.75454e-08
3.92303e-07
1.51621e-07
4.57926e-07
-1.83158e-07
4.16725e-07
-1.05163e-07
3.16966e-07
-6.74444e-08
2.28948e-07
5.93541e-08
1.60898e-07
1.82256e-07
1.32538e-07
6.71384e-08
1.05365e-07
1.17692e-08
8.80957e-08
1.09855e-08
8.45249e-08
-5.04872e-10
8.2098e-08
8.51176e-09
7.2143e-08
1.92613e-08
7.27145e-08
-1.11622e-08
7.11202e-08
-5.49641e-09
7.66937e-08
-6.53472e-10
7.27967e-08
-2.10846e-09
7.44308e-08
-8.73762e-09
7.81148e-08
-7.78693e-09
8.06341e-08
-4.1246e-09
8.33326e-08
1.35568e-09
7.95611e-08
-3.43082e-09
7.9813e-08
-5.57496e-09
7.77711e-08
-4.10144e-09
7.53106e-08
4.10243e-09
7.28501e-08
-1.69716e-08
6.46161e-08
-2.24489e-09
4.74487e-08
7.11532e-09
2.05855e-08
1.07212e-08
1.33172e-08
1.49247e-08
6.92447e-08
-1.36821e-08
6.87493e-08
6.04445e-08
7.1587e-08
2.4682e-08
5.56781e-08
5.49823e-08
4.60858e-08
2.64554e-08
4.38303e-08
9.0967e-09
4.03813e-08
5.18585e-09
3.61158e-08
3.15117e-09
3.25467e-08
2.19374e-09
2.95136e-08
1.59473e-09
2.65468e-08
1.30635e-09
2.34242e-08
9.61319e-10
2.01598e-08
6.78475e-10
1.69065e-08
4.49882e-10
1.37665e-08
2.69101e-10
1.07644e-08
1.30514e-10
7.90179e-09
3.44009e-11
5.20419e-09
-2.29101e-11
2.70267e-09
-4.59092e-11
3.93893e-10
-5.01885e-11
-1.78069e-09
-4.99566e-11
-3.90916e-09
-4.68093e-11
-6.04681e-09
-4.04538e-11
-8.17602e-09
-3.12748e-11
-1.02253e-08
-1.25395e-11
-1.21073e-08
1.53804e-11
-1.37602e-08
5.02772e-11
-1.51613e-08
8.84323e-11
-1.63226e-08
1.29384e-10
-1.72689e-08
1.68231e-10
-1.80299e-08
2.03688e-10
-1.8632e-08
2.32246e-10
-1.90999e-08
2.52954e-10
-1.94558e-08
2.65116e-10
-1.97172e-08
2.65906e-10
-1.99026e-08
2.56663e-10
-2.00311e-08
2.36338e-10
-2.01231e-08
2.04309e-10
-2.01985e-08
1.59993e-10
-2.02742e-08
1.04075e-10
-2.03643e-08
3.92931e-11
-2.04811e-08
-2.95423e-11
-2.06341e-08
-9.93745e-11
-2.08284e-08
-1.68046e-10
-2.10659e-08
-2.31377e-10
-2.13448e-08
-2.84409e-10
-2.1658e-08
-3.24763e-10
-2.19955e-08
-3.49185e-10
-2.23438e-08
-3.55768e-10
-2.26854e-08
-3.40913e-10
-2.29964e-08
-3.02942e-10
-2.3258e-08
-2.31777e-10
-2.34751e-08
-1.06968e-10
-1.83533e-12
1.23161e-06
1.11134e-07
1.25058e-06
7.37048e-08
1.25676e-06
3.4307e-08
1.25214e-06
9.42975e-09
1.24293e-06
3.80078e-08
1.24634e-06
3.44367e-08
1.22496e-06
1.06162e-07
1.254e-06
1.63829e-07
1.24255e-06
1.1979e-08
1.2468e-06
-5.91575e-09
1.26002e-06
5.91356e-08
1.28459e-06
5.51932e-08
1.21651e-06
6.16118e-07
1.2447e-06
1.82537e-07
1.29265e-06
7.04856e-08
1.33044e-06
1.27528e-07
1.20496e-06
1.11765e-07
1.15885e-06
5.26798e-07
1.37415e-06
-6.2728e-07
1.24785e-06
-3.84177e-07
8.83978e-07
-2.39993e-07
4.98911e-07
1.33865e-07
2.88988e-07
6.30154e-07
3.25139e-07
2.65893e-07
3.06408e-07
2.50205e-08
2.60632e-07
4.6916e-08
2.50791e-07
2.80834e-09
2.45477e-07
3.02072e-08
2.15608e-07
7.90889e-08
2.1754e-07
-4.61139e-08
2.12303e-07
-2.1395e-08
2.31334e-07
-4.65062e-09
2.1775e-07
-6.66497e-09
2.22962e-07
-3.46609e-08
2.35342e-07
-3.40845e-08
2.42246e-07
-1.57501e-08
2.52905e-07
3.21935e-09
2.38026e-07
-1.13351e-08
2.38113e-07
-2.11625e-10
2.34519e-07
-1.87287e-08
2.25257e-07
-2.54436e-08
2.20571e-07
-7.01447e-08
1.95847e-07
-9.47274e-09
1.459e-07
2.71672e-08
5.95625e-08
4.79217e-08
3.1889e-08
6.13027e-08
2.11007e-07
-5.81186e-08
2.06333e-07
2.72951e-07
2.20253e-07
1.33479e-07
1.72247e-07
2.42506e-07
1.39511e-07
1.21091e-07
1.33052e-07
4.1097e-08
1.22583e-07
2.0802e-08
1.09588e-07
1.26844e-08
9.89153e-08
8.74653e-09
8.97905e-08
6.39702e-09
8.07987e-08
5.31288e-09
7.12897e-08
3.98614e-09
6.13389e-08
2.87141e-09
5.1434e-08
1.94462e-09
4.18772e-08
1.21333e-09
3.27404e-08
6.53139e-10
2.40298e-08
2.60734e-10
1.58358e-08
9.92421e-12
8.25872e-09
-1.10703e-10
1.28058e-09
-1.48704e-10
-5.30493e-09
-1.3788e-10
-1.177e-08
-1.074e-10
-1.82823e-08
-6.24564e-11
-2.478e-08
-1.4861e-11
-3.10322e-08
5.41888e-11
-3.67568e-08
1.40204e-10
-4.1772e-08
2.57726e-10
-4.60075e-08
3.86069e-10
-4.95074e-08
5.33719e-10
-5.2348e-08
6.74404e-10
-5.46208e-08
8.0464e-10
-5.64087e-08
9.10504e-10
-5.77901e-08
9.89246e-10
-5.88284e-08
1.03094e-09
-5.95805e-08
1.03156e-09
-6.01043e-08
9.94089e-10
-6.04533e-08
9.08645e-10
-6.06973e-08
7.84918e-10
-6.08919e-08
6.08348e-10
-6.10953e-08
3.92426e-10
-6.13465e-08
1.38053e-10
-6.16859e-08
-1.29213e-10
-6.21384e-08
-4.03923e-10
-6.27249e-08
-6.68671e-10
-6.3447e-08
-9.1583e-10
-6.4302e-08
-1.11918e-09
-6.52641e-08
-1.27628e-09
-6.63063e-08
-1.36708e-09
-6.73836e-08
-1.39043e-09
-6.84447e-08
-1.32725e-09
-6.94128e-08
-1.17642e-09
-7.02225e-08
-9.01997e-10
-7.08505e-08
-4.51031e-10
-2.12746e-11
2.04897e-06
2.29103e-07
2.08212e-06
1.56421e-07
2.08664e-06
7.85634e-08
2.0799e-06
1.46967e-08
2.06504e-06
9.25467e-08
2.07218e-06
8.56838e-08
2.03393e-06
2.36016e-07
2.04872e-06
3.86502e-07
2.03046e-06
-1.41691e-08
2.06376e-06
-2.13439e-08
2.08394e-06
1.44607e-07
2.13635e-06
1.12714e-07
1.99869e-06
6.71145e-07
1.96837e-06
5.14539e-07
1.99501e-06
3.31531e-07
2.14448e-06
2.25393e-07
2.00308e-06
3.70222e-09
1.89006e-06
4.68866e-07
2.27856e-06
-5.98665e-07
2.08362e-06
-7.48867e-07
1.65028e-06
-6.14199e-07
1.17412e-06
6.99322e-07
7.7898e-07
1.90348e-06
7.1967e-07
6.97273e-07
5.65272e-07
9.71601e-08
4.59044e-07
8.68758e-08
4.41092e-07
5.49639e-08
4.0892e-07
7.88193e-08
3.56772e-07
1.9511e-07
3.62634e-07
-1.00197e-07
3.53368e-07
-4.5386e-08
3.85243e-07
-1.23602e-08
3.62627e-07
-1.47376e-08
3.72795e-07
-8.02613e-08
3.9485e-07
-7.81988e-08
4.06288e-07
-3.45602e-08
4.23342e-07
8.27751e-09
3.97927e-07
-2.31381e-08
3.96687e-07
-2.61238e-08
3.90864e-07
-4.54487e-08
3.75203e-07
-9.49035e-09
3.69721e-07
-1.63627e-07
3.28143e-07
-2.40898e-08
2.45915e-07
5.90947e-08
1.01269e-07
9.36545e-08
6.23454e-08
1.16866e-07
3.597e-07
1.06517e-07
4.10721e-07
7.02989e-07
4.33446e-07
2.997e-07
2.82063e-07
5.65793e-07
2.30801e-07
2.5058e-07
2.24151e-07
8.12662e-08
2.05828e-07
4.58001e-08
1.84008e-07
2.80989e-08
1.66125e-07
1.97855e-08
1.50767e-07
1.45248e-08
1.35619e-07
1.21388e-08
1.1962e-07
9.17542e-09
1.02898e-07
6.66399e-09
8.62615e-08
4.56445e-09
7.02108e-08
2.91053e-09
5.4864e-08
1.64406e-09
4.02325e-08
7.52988e-10
2.64696e-08
1.72127e-10
1.37414e-08
-1.17925e-10
2.01518e-09
-2.16087e-10
-9.0619e-09
-1.8262e-10
-1.99414e-08
-1.03705e-10
-3.08985e-08
4.54822e-12
-4.18264e-08
1.10921e-10
-5.23319e-08
2.50894e-10
-6.19417e-08
4.17243e-10
-7.03527e-08
6.5613e-10
-7.74507e-08
9.20953e-10
-8.33102e-08
1.23392e-09
-8.80599e-08
1.53319e-09
-9.18527e-08
1.81063e-09
-9.48285e-08
2.03638e-09
-9.71197e-08
2.20472e-09
-9.88307e-08
2.28735e-09
-1.0006e-07
2.28298e-09
-1.00906e-07
2.1952e-09
-1.01456e-07
1.9968e-09
-1.01832e-07
1.7214e-09
-1.02125e-07
1.32399e-09
-1.02439e-07
8.47496e-10
-1.02837e-07
2.82108e-10
-1.0339e-07
-3.08198e-10
-1.04136e-07
-9.20095e-10
-1.05113e-07
-1.50258e-09
-1.06323e-07
-2.05042e-09
-1.07761e-07
-2.49674e-09
-1.09381e-07
-2.84477e-09
-1.1114e-07
-3.04165e-09
-1.12958e-07
-3.09201e-09
-1.14749e-07
-2.94787e-09
-1.16382e-07
-2.61144e-09
-1.17741e-07
-2.00954e-09
-1.18752e-07
-1.05987e-09
-1.07035e-10
2.8503e-06
3.70041e-07
2.89724e-06
2.48303e-07
2.91282e-06
1.24057e-07
2.90607e-06
9.08434e-09
2.87825e-06
1.8952e-07
2.89091e-06
1.71965e-07
2.83452e-06
3.99611e-07
2.87962e-06
6.29141e-07
2.74826e-06
4.62104e-08
2.73092e-06
-6.02766e-08
2.84429e-06
2.28494e-07
2.95904e-06
1.44789e-07
2.62861e-06
-2.28158e-06
2.70643e-06
8.47153e-07
2.9765e-06
3.34851e-07
3.07353e-06
3.34372e-07
2.79094e-06
-4.73474e-07
2.38761e-06
-2.63836e-06
2.92832e-06
2.72128e-06
2.87426e-06
-1.27544e-06
2.25553e-06
-3.68911e-07
1.90004e-06
1.89284e-06
1.50986e-06
3.224e-06
1.20831e-06
1.20845e-06
9.10934e-07
2.56186e-07
6.71005e-07
1.90512e-07
5.97542e-07
6.71561e-08
5.70697e-07
1.45506e-07
5.20323e-07
3.59242e-07
5.3683e-07
-1.79167e-07
4.93348e-07
-4.56227e-08
5.38669e-07
-2.94428e-08
5.07591e-07
-2.87749e-08
5.24956e-07
-1.54544e-07
5.57572e-07
-1.4186e-07
5.73151e-07
-6.16492e-08
5.95202e-07
2.15376e-08
5.58374e-07
-4.59517e-08
5.56708e-07
-6.51265e-09
5.48302e-07
-8.56373e-08
5.23261e-07
8.25856e-09
5.1819e-07
-3.01565e-07
4.60045e-07
-5.0689e-08
3.4597e-07
1.00226e-07
1.42931e-07
1.28717e-07
6.99291e-08
2.23914e-07
5.01837e-07
3.43387e-08
4.90692e-07
1.60061e-06
5.20314e-07
6.56423e-07
3.85876e-07
8.68541e-07
3.21462e-07
4.59459e-07
3.15335e-07
1.32452e-07
2.88957e-07
7.94739e-08
2.58377e-07
5.67252e-08
2.33242e-07
3.54022e-08
2.11633e-07
2.59455e-08
1.90305e-07
2.17877e-08
1.6781e-07
1.65332e-08
1.44316e-07
1.20552e-08
1.20948e-07
8.31122e-09
9.83993e-08
5.3657e-09
7.68346e-08
3.11262e-09
5.62723e-08
1.52249e-09
3.69289e-08
4.76718e-10
1.90379e-08
-5.44964e-11
2.55376e-09
-2.41418e-10
-1.30214e-08
-1.76889e-10
-2.83211e-08
-2.95351e-11
-4.37282e-08
1.65886e-10
-5.90912e-08
3.51258e-10
-7.38544e-08
5.82293e-10
-8.7357e-08
8.54096e-10
-9.91715e-08
1.25326e-09
-1.09142e-07
1.70314e-09
-1.17372e-07
2.2405e-09
-1.24043e-07
2.75621e-09
-1.29369e-07
3.23403e-09
-1.33546e-07
3.62257e-09
-1.3676e-07
3.91158e-09
-1.39157e-07
4.04653e-09
-1.40876e-07
4.03189e-09
-1.42055e-07
3.86986e-09
-1.42816e-07
3.51058e-09
-1.43332e-07
3.02102e-09
-1.43731e-07
2.3135e-09
-1.44161e-07
1.47408e-09
-1.44711e-07
4.75345e-10
-1.45479e-07
-5.64369e-10
-1.46518e-07
-1.64729e-09
-1.47886e-07
-2.6712e-09
-1.49579e-07
-3.63762e-09
-1.51596e-07
-4.42077e-09
-1.5387e-07
-5.03428e-09
-1.56339e-07
-5.37764e-09
-1.58892e-07
-5.46515e-09
-1.61408e-07
-5.20752e-09
-1.63702e-07
-4.6126e-09
-1.656e-07
-3.562e-09
-1.66964e-07
-1.96295e-09
-3.01011e-10
3.64668e-06
5.03606e-07
3.69417e-06
3.48706e-07
3.71292e-06
1.6624e-07
3.69492e-06
-4.76426e-10
3.65034e-06
3.53725e-07
3.69975e-06
2.70818e-07
3.60438e-06
5.7873e-07
3.64449e-06
8.45095e-07
3.46017e-06
9.97529e-08
2.75808e-06
3.00646e-07
2.33366e-06
1.5811e-06
2.70988e-06
3.17178e-07
3.16435e-06
-2.37266e-06
3.60216e-06
6.27983e-07
3.64594e-06
6.46533e-07
3.76482e-06
3.2456e-07
3.24844e-06
-1.46886e-06
3.0251e-06
-3.51995e-06
3.78112e-06
3.06814e-06
3.31049e-06
-1.22101e-06
2.57592e-06
3.38604e-06
2.58821e-06
3.36686e-06
2.08264e-06
3.42462e-06
1.5914e-06
1.69714e-06
1.2536e-06
4.70101e-07
9.04712e-07
3.23608e-07
7.71887e-07
3.76715e-08
7.27937e-07
3.33693e-07
6.19748e-07
6.64715e-07
6.52185e-07
-2.87159e-07
6.34182e-07
-8.15425e-08
6.92959e-07
-6.46843e-08
6.52655e-07
-5.01454e-08
6.8035e-07
-2.49417e-07
7.6679e-07
-2.60449e-07
7.86975e-07
-7.80986e-08
7.6779e-07
9.48846e-08
7.22484e-07
-8.32236e-08
7.18642e-07
-4.63169e-08
7.03785e-07
-1.39517e-07
6.68298e-07
2.41452e-08
6.68375e-07
-4.93019e-07
5.94133e-07
-2.24164e-07
4.45413e-07
1.52804e-07
1.84698e-07
1.07867e-07
8.97485e-08
3.65019e-07
6.58196e-07
-3.09457e-08
6.3098e-07
3.05583e-06
6.74953e-07
1.13322e-06
4.94175e-07
1.1845e-06
4.12515e-07
7.16707e-07
4.05486e-07
1.81502e-07
3.71716e-07
1.22368e-07
3.32352e-07
8.49433e-08
3.00032e-07
5.56149e-08
2.72209e-07
4.05403e-08
2.44712e-07
3.42246e-08
2.15737e-07
2.60378e-08
1.85492e-07
1.90248e-08
1.55408e-07
1.31687e-08
1.26377e-07
8.56549e-09
9.86067e-08
5.04855e-09
7.21251e-08
2.5598e-09
4.7212e-08
9.14809e-10
2.41698e-08
6.98709e-11
2.94066e-09
-2.36107e-10
-1.71192e-08
-1.33021e-10
-3.68274e-08
1.04112e-10
-5.66745e-08
4.11842e-10
-7.64648e-08
6.98498e-10
-9.54788e-08
1.04159e-09
-1.1287e-07
1.44649e-09
-1.28084e-07
2.04535e-09
-1.40925e-07
2.73068e-09
-1.51525e-07
3.55252e-09
-1.60118e-07
4.34422e-09
-1.6698e-07
5.07724e-09
-1.72364e-07
5.67294e-09
-1.76507e-07
6.11462e-09
-1.79597e-07
6.31423e-09
-1.81814e-07
6.28474e-09
-1.83332e-07
6.02404e-09
-1.84314e-07
5.45711e-09
-1.84978e-07
4.69002e-09
-1.8549e-07
3.58379e-09
-1.86043e-07
2.27844e-09
-1.86751e-07
7.23823e-10
-1.87741e-07
-8.92404e-10
-1.89078e-07
-2.5806e-09
-1.90838e-07
-4.17075e-09
-1.93018e-07
-5.67417e-09
-1.95616e-07
-6.88885e-09
-1.98545e-07
-7.84258e-09
-2.01725e-07
-8.37332e-09
-2.05013e-07
-8.50817e-09
-2.08253e-07
-8.10492e-09
-2.11207e-07
-7.17911e-09
-2.13643e-07
-5.56155e-09
-2.1534e-07
-3.17863e-09
-6.27965e-10
4.42925e-06
5.99324e-07
4.50399e-06
4.09084e-07
4.5151e-06
2.15361e-07
4.51522e-06
-2.62829e-08
4.43623e-06
5.6817e-07
4.47175e-06
4.98848e-07
4.3986e-06
6.4557e-07
4.43427e-06
9.12144e-07
4.42796e-06
-4.53083e-08
4.41901e-06
4.09101e-07
4.37014e-06
2.41105e-06
4.48887e-06
2.96278e-07
4.4456e-06
-1.85014e-06
4.38762e-06
4.88271e-07
4.57832e-06
7.88777e-07
4.69237e-06
2.76678e-09
3.75227e-06
-1.97908e-06
3.40112e-06
-3.84017e-06
3.68173e-06
3.06372e-06
3.6686e-06
-1.04195e-06
3.13883e-06
-2.18615e-06
3.00343e-06
4.97249e-06
2.44672e-06
3.00321e-06
1.71753e-06
2.18394e-06
1.36123e-06
7.88133e-07
1.13692e-06
4.77974e-07
1.02571e-06
9.31388e-09
9.93541e-07
5.67469e-07
8.17253e-07
-1.20108e-06
8.19838e-07
-3.60645e-07
7.81519e-07
-1.11777e-07
8.82597e-07
-1.78847e-07
8.33619e-07
-1.03573e-07
8.31903e-07
-3.36885e-07
8.84808e-07
-3.70039e-07
9.08895e-07
-1.01038e-07
9.36133e-07
1.48703e-07
8.83463e-07
-1.29794e-07
8.75863e-07
-9.01003e-08
8.57636e-07
-2.15649e-07
8.08995e-07
3.54686e-08
8.52447e-07
-7.74517e-07
7.64027e-07
-3.10357e-07
5.41869e-07
2.5435e-07
2.27056e-07
-5.09185e-08
1.00424e-07
5.36241e-07
8.14122e-07
-6.94127e-08
7.49106e-07
5.09619e-06
8.25018e-07
1.70316e-06
5.99543e-07
1.42886e-06
4.9843e-07
9.09892e-07
4.93277e-07
2.51951e-07
4.54044e-07
1.74443e-07
4.06006e-07
1.21946e-07
3.66532e-07
8.05294e-08
3.32553e-07
5.81179e-08
2.98895e-07
4.94102e-08
2.63458e-07
3.76674e-08
2.2648e-07
2.75544e-08
1.89696e-07
1.91222e-08
1.54197e-07
1.24971e-08
1.20234e-07
7.44137e-09
8.78452e-08
3.85502e-09
5.73741e-08
1.4771e-09
2.91923e-08
2.45689e-10
3.23036e-09
-2.10395e-10
-2.13026e-08
-6.13481e-11
-4.54093e-08
2.88028e-10
-6.96875e-08
7.33973e-10
-9.38975e-08
1.14536e-09
-1.17155e-07
1.62152e-09
-1.38428e-07
2.18849e-09
-1.57035e-07
3.02605e-09
-1.72742e-07
3.99806e-09
-1.85707e-07
5.1647e-09
-1.96219e-07
6.29272e-09
-2.04615e-07
7.33657e-09
-2.11204e-07
8.18463e-09
-2.16274e-07
8.81149e-09
-2.20057e-07
9.08875e-09
-2.22773e-07
9.04033e-09
-2.24632e-07
8.65632e-09
-2.25835e-07
7.83636e-09
-2.26648e-07
6.72825e-09
-2.27277e-07
5.13611e-09
-2.27955e-07
3.26209e-09
-2.28824e-07
1.02989e-09
-2.30038e-07
-1.28945e-09
-2.31677e-07
-3.71628e-09
-2.33833e-07
-5.99735e-09
-2.36504e-07
-8.15572e-09
-2.39685e-07
-9.89657e-09
-2.43272e-07
-1.12649e-08
-2.47166e-07
-1.20241e-08
-2.51193e-07
-1.22165e-08
-2.5516e-07
-1.16359e-08
-2.58775e-07
-1.03076e-08
-2.61748e-07
-8.00688e-09
-2.63772e-07
-4.71344e-09
-1.09717e-09
5.1819e-06
6.30432e-07
5.26711e-06
4.18008e-07
5.28395e-06
2.469e-07
5.30319e-06
-6.83359e-08
5.20279e-06
8.30581e-07
5.2125e-06
6.84801e-07
5.10633e-06
4.97128e-07
5.16298e-06
6.66444e-07
5.19637e-06
-1.60888e-07
5.11149e-06
6.18034e-07
4.83709e-06
4.22124e-06
4.96474e-06
3.9902e-08
5.12184e-06
-1.80836e-06
5.12158e-06
3.06325e-08
5.28816e-06
8.41303e-07
5.31206e-06
-9.44102e-07
4.45883e-06
-3.07835e-06
3.40818e-06
-1.94303e-06
3.37428e-06
3.06809e-06
3.64715e-06
-7.40605e-07
3.16936e-06
-2.53212e-06
3.26654e-06
4.98872e-06
2.47058e-06
2.78131e-06
1.55599e-06
2.36811e-06
1.19409e-06
1.32593e-06
1.27957e-06
5.8822e-07
1.2924e-06
2.11136e-08
1.18059e-06
8.8698e-07
9.8541e-07
-7.605e-07
9.83985e-07
-3.71788e-07
9.26937e-07
-1.24784e-07
1.00951e-06
-1.87566e-07
9.45304e-07
-1.59129e-07
9.84481e-07
-4.91749e-07
1.04664e-06
-5.18833e-07
1.07488e-06
-1.31778e-07
1.10145e-06
2.36335e-07
1.0408e-06
-1.87291e-07
1.0769e-06
-1.8854e-07
1.05758e-06
-3.16731e-07
9.43304e-07
8.70678e-08
9.59054e-07
-1.06957e-06
8.54666e-07
-4.42953e-07
6.31909e-07
3.41426e-07
2.71267e-07
-4.7923e-07
1.00445e-07
7.3809e-07
9.75973e-07
-6.27861e-08
8.37675e-07
7.81492e-06
9.78141e-07
2.42556e-06
7.11183e-07
1.63975e-06
5.81941e-07
8.03114e-07
5.78755e-07
3.52499e-07
5.35966e-07
2.36333e-07
4.79416e-07
1.65262e-07
4.3283e-07
1.10307e-07
3.92762e-07
7.84087e-08
3.52946e-07
6.73107e-08
3.11058e-07
5.14042e-08
2.6736e-07
3.76302e-08
2.23889e-07
2.61614e-08
1.81933e-07
1.71522e-08
1.41786e-07
1.02844e-08
1.03499e-07
5.40193e-09
6.74789e-08
2.15813e-09
3.41658e-08
4.67644e-10
3.47857e-09
-1.69533e-10
-2.55206e-08
3.29323e-11
-5.40202e-08
5.17446e-10
-8.27242e-08
1.12748e-09
-1.11349e-07
1.68754e-09
-1.38845e-07
2.31732e-09
-1.63995e-07
3.07585e-09
-1.85991e-07
4.19058e-09
-2.04559e-07
5.50065e-09
-2.19885e-07
7.07222e-09
-2.32313e-07
8.59704e-09
-2.4224e-07
1.00074e-08
-2.5003e-07
1.11533e-08
-2.56027e-07
1.19979e-08
-2.605e-07
1.23659e-08
-2.63713e-07
1.22948e-08
-2.65909e-07
1.17625e-08
-2.67333e-07
1.06452e-08
-2.68294e-07
9.13244e-09
-2.69039e-07
6.96836e-09
-2.69843e-07
4.42336e-09
-2.70872e-07
1.39279e-09
-2.72311e-07
-1.75557e-09
-2.74253e-07
-5.05331e-09
-2.76806e-07
-8.14953e-09
-2.79968e-07
-1.108e-08
-2.83734e-07
-1.34414e-08
-2.8798e-07
-1.52982e-08
-2.9259e-07
-1.63267e-08
-2.97356e-07
-1.65867e-08
-3.02051e-07
-1.57976e-08
-3.06328e-07
-1.39955e-08
-3.09838e-07
-1.08961e-08
-3.12188e-07
-6.56632e-09
-1.70774e-09
5.90194e-06
5.82974e-07
5.9876e-06
3.4367e-07
5.99443e-06
2.66792e-07
6.04224e-06
-7.72838e-08
5.86991e-06
1.11114e-06
5.92517e-06
7.5346e-07
5.83739e-06
-1.16382e-07
5.6097e-06
6.91826e-07
5.67651e-06
1.44941e-07
6.00149e-06
3.54474e-07
5.76318e-06
-1.54378e-06
6.04581e-06
-1.2608e-06
6.04049e-06
-2.80658e-06
5.42107e-06
1.87108e-07
5.13862e-06
1.36742e-06
4.88899e-06
-2.97507e-06
3.642e-06
-2.51179e-06
2.91283e-06
-7.00694e-07
2.60652e-06
3.2666e-06
3.2317e-06
-7.91477e-07
3.36817e-06
-2.20383e-06
3.15836e-06
8.58455e-07
2.5871e-06
2.47075e-06
1.97741e-06
2.47893e-06
1.69594e-06
1.96112e-06
1.64909e-06
1.0614e-06
1.63155e-06
8.21265e-08
1.40005e-06
1.21606e-06
1.1423e-06
-4.29809e-07
1.12576e-06
-1.43036e-07
1.07014e-06
-1.19476e-07
1.17324e-06
-1.2119e-07
1.0949e-06
-2.40756e-07
1.14128e-06
-6.86784e-07
1.21349e-06
-7.07368e-07
1.24553e-06
-1.64886e-07
1.26172e-06
3.61768e-07
1.19038e-06
-2.47248e-07
1.17365e-06
-2.51615e-07
1.15222e-06
-4.45743e-07
1.06924e-06
6.86386e-08
1.09828e-06
-1.39985e-06
9.79267e-07
-5.79456e-07
7.17979e-07
4.49921e-07
3.24432e-07
2.82372e-06
9.54376e-08
9.76491e-07
1.34217e-06
-1.92319e-07
1.0252e-06
1.18905e-05
1.18361e-06
3.48049e-06
8.72095e-07
1.64284e-06
6.9295e-07
-2.30026e-07
6.70075e-07
4.77222e-07
6.18007e-07
3.07403e-07
5.52684e-07
2.15723e-07
4.98994e-07
1.45241e-07
4.52916e-07
1.01034e-07
4.06935e-07
8.79037e-08
3.58603e-07
6.72346e-08
3.08195e-07
4.9242e-08
2.58045e-07
3.42791e-08
2.09641e-07
2.2525e-08
1.63318e-07
1.35733e-08
1.19141e-07
7.19689e-09
7.75778e-08
2.95503e-09
3.9139e-08
7.33396e-10
3.73089e-09
-1.15203e-10
-2.9731e-08
1.4812e-10
-6.26205e-08
7.90692e-10
-9.57479e-08
1.59048e-09
-1.28786e-07
2.32295e-09
-1.60516e-07
3.12631e-09
-1.89542e-07
4.10614e-09
-2.14922e-07
5.53598e-09
-2.36349e-07
7.23564e-09
-2.54034e-07
9.27195e-09
-2.68376e-07
1.12539e-08
-2.79831e-07
1.30865e-08
-2.88822e-07
1.45755e-08
-2.95743e-07
1.56702e-08
-3.00906e-07
1.61421e-08
-3.04614e-07
1.60443e-08
-3.07147e-07
1.53386e-08
-3.08791e-07
1.38802e-08
-3.09897e-07
1.18989e-08
-3.10758e-07
9.0778e-09
-3.11686e-07
5.75959e-09
-3.12875e-07
1.81065e-09
-3.14538e-07
-2.29214e-09
-3.16781e-07
-6.59211e-09
-3.1973e-07
-1.06274e-08
-3.23382e-07
-1.44465e-08
-3.27732e-07
-1.75226e-08
-3.32637e-07
-1.99413e-08
-3.37962e-07
-2.128e-08
-3.43467e-07
-2.16173e-08
-3.48888e-07
-2.05884e-08
-3.53827e-07
-1.82415e-08
-3.57874e-07
-1.42275e-08
-3.60554e-07
-8.73241e-09
-2.45372e-09
6.53375e-06
4.27693e-07
6.63285e-06
5.48599e-07
6.63194e-06
2.68329e-07
6.70224e-06
2.1906e-09
6.50603e-06
1.21714e-06
6.5238e-06
7.6478e-07
6.39402e-06
-1.52038e-06
5.81228e-06
6.75217e-07
5.90155e-06
1.00307e-06
6.32708e-06
-2.20698e-07
5.8886e-06
-2.24592e-07
6.44776e-06
1.14011e-05
6.73769e-06
-6.45016e-06
6.29438e-06
-2.44028e-07
5.87122e-06
2.04332e-06
5.30105e-06
-7.3061e-06
3.73694e-06
-2.02951e-06
2.35805e-06
4.76936e-07
1.96019e-06
3.26688e-06
3.02984e-06
-8.96397e-07
2.85181e-06
-1.23127e-06
2.89471e-06
5.83134e-07
2.59652e-06
2.14109e-06
2.01919e-06
2.58838e-06
2.01308e-06
2.55499e-06
1.98752e-06
1.36987e-06
1.89059e-06
2.08384e-07
1.5254e-06
1.45533e-06
1.2395e-06
-2.40806e-07
1.28704e-06
3.65568e-07
1.29678e-06
-1.25962e-07
1.38198e-06
1.79364e-07
1.24936e-06
-2.95519e-07
1.30507e-06
-9.17425e-07
1.38487e-06
-9.34513e-07
1.4161e-06
-3.10122e-08
1.41414e-06
5.14177e-07
1.33294e-06
-3.20259e-07
1.30978e-06
-3.40724e-07
1.34892e-06
-6.53799e-07
1.30019e-06
-2.66544e-08
1.29115e-06
-1.63231e-06
1.09935e-06
-6.75069e-07
8.45912e-07
5.58862e-07
3.79281e-07
1.49865e-06
1.05031e-07
1.27367e-06
1.40912e-06
2.36139e-08
9.49162e-07
1.61653e-05
1.27829e-06
4.28244e-06
9.23075e-07
1.75835e-06
7.70405e-07
-2.99634e-06
7.60201e-07
5.79323e-07
6.99964e-07
3.86214e-07
6.25863e-07
2.73181e-07
5.65039e-07
1.86248e-07
5.13065e-07
1.25473e-07
4.60899e-07
1.11181e-07
4.0613e-07
8.51468e-08
3.49021e-07
6.23803e-08
2.92201e-07
4.34691e-08
2.37355e-07
2.8611e-08
1.84864e-07
1.7305e-08
1.34803e-07
9.23768e-09
8.77018e-08
3.86659e-09
4.41418e-08
1.04239e-09
4.01563e-09
-4.69663e-11
-3.39069e-08
2.84526e-10
-7.11853e-08
1.10783e-09
-1.08735e-07
2.12247e-09
-1.46184e-07
3.05073e-09
-1.82148e-07
4.04705e-09
-2.15046e-07
5.27795e-09
-2.4381e-07
7.0605e-09
-2.68094e-07
9.20124e-09
-2.88137e-07
1.17618e-08
-3.04391e-07
1.42611e-08
-3.17375e-07
1.6571e-08
-3.27567e-07
1.84485e-08
-3.35411e-07
1.98252e-08
-3.41263e-07
2.04141e-08
-3.45467e-07
2.02859e-08
-3.48336e-07
1.9381e-08
-3.50199e-07
1.75384e-08
-3.51452e-07
1.50245e-08
-3.52427e-07
1.14619e-08
-3.53478e-07
7.26834e-09
-3.54827e-07
2.28171e-09
-3.56712e-07
-2.90061e-09
-3.59256e-07
-8.33332e-09
-3.626e-07
-1.34315e-08
-3.66741e-07
-1.82551e-08
-3.71673e-07
-2.214e-08
-3.77235e-07
-2.51934e-08
-3.83272e-07
-2.68833e-08
-3.89515e-07
-2.73073e-08
-3.95661e-07
-2.60075e-08
-4.01258e-07
-2.30446e-08
-4.05842e-07
-1.79996e-08
-4.08856e-07
-1.12055e-08
-3.32734e-09
7.05998e-06
1.88966e-07
7.19544e-06
3.56559e-07
7.15283e-06
3.35053e-07
7.29763e-06
1.21545e-07
7.00726e-06
8.93476e-07
7.07951e-06
5.25184e-07
7.09486e-06
-4.5302e-06
6.91579e-06
4.58551e-07
6.59822e-06
2.11526e-06
6.79203e-06
-7.02718e-07
6.96199e-06
-1.34271e-06
6.29713e-06
-3.99918e-06
6.35788e-06
8.2123e-06
5.237e-06
-1.39931e-07
5.1017e-06
2.30217e-06
6.22706e-06
1.23764e-05
4.71656e-06
-1.08908e-06
2.97283e-06
1.50376e-06
2.11384e-06
1.93687e-06
2.82692e-06
-1.73502e-06
2.54418e-06
-6.26593e-07
2.57233e-06
5.01852e-08
2.43532e-06
1.77508e-06
2.30213e-06
2.36982e-06
2.31395e-06
2.72847e-06
2.12162e-06
1.45585e-06
2.03328e-06
5.40542e-07
1.63453e-06
1.48998e-06
1.46009e-06
-1.73017e-07
1.45881e-06
7.91731e-07
1.36509e-06
-2.06858e-08
1.56516e-06
6.7139e-07
1.46237e-06
-3.38751e-07
1.46551e-06
-1.12596e-06
1.64365e-06
-1.28761e-06
1.66556e-06
-3.87569e-08
1.55422e-06
7.32029e-07
1.46716e-06
-4.1501e-07
1.43457e-06
-4.66272e-07
1.48295e-06
-8.91486e-07
1.35263e-06
-1.00073e-07
1.35908e-06
-1.71732e-06
1.21404e-06
-8.35437e-07
8.87638e-07
7.62725e-07
3.54015e-07
9.6915e-07
1.84099e-07
1.51196e-06
1.80005e-06
1.50518e-06
9.715e-07
2.06094e-05
1.41642e-06
5.06892e-06
1.00415e-06
1.99159e-06
8.96147e-07
4.95068e-06
8.49061e-07
7.18487e-07
7.81985e-07
4.72979e-07
6.99096e-07
3.38097e-07
6.31015e-07
2.34233e-07
5.73245e-07
1.51125e-07
5.14852e-07
1.37161e-07
4.53649e-07
1.05131e-07
3.89848e-07
7.70352e-08
3.26366e-07
5.37245e-08
2.65089e-07
3.54054e-08
2.06436e-07
2.14765e-08
1.50497e-07
1.15225e-08
9.78633e-08
4.89223e-09
4.91861e-08
1.39486e-09
4.34403e-09
3.66432e-11
-3.80378e-08
4.43177e-10
-7.97043e-08
1.46957e-09
-1.21676e-07
2.72369e-09
-1.63535e-07
3.87035e-09
-2.0373e-07
5.07864e-09
-2.40501e-07
6.5902e-09
-2.72647e-07
8.76286e-09
-2.99787e-07
1.13962e-08
-3.22186e-07
1.454e-08
-3.40354e-07
1.76168e-08
-3.54866e-07
2.0459e-08
-3.66258e-07
2.277e-08
-3.75027e-07
2.44604e-08
-3.81569e-07
2.51796e-08
-3.86268e-07
2.50168e-08
-3.89474e-07
2.38871e-08
-3.91557e-07
2.16175e-08
-3.92955e-07
1.85064e-08
-3.94047e-07
1.41185e-08
-3.9522e-07
8.94745e-09
-3.96729e-07
2.80451e-09
-3.98836e-07
-3.58217e-09
-4.0168e-07
-1.02773e-08
-4.05416e-07
-1.6562e-08
-4.10045e-07
-2.25055e-08
-4.15557e-07
-2.72935e-08
-4.21774e-07
-3.1054e-08
-4.28522e-07
-3.31359e-08
-4.355e-07
-3.36557e-08
-4.42369e-07
-3.2054e-08
-4.48624e-07
-2.84038e-08
-4.53743e-07
-2.22105e-08
-4.57096e-07
-1.39791e-08
-4.32077e-09
7.49079e-06
-1.15425e-07
7.61816e-06
1.24627e-07
7.59678e-06
3.14309e-07
7.80806e-06
3.3194e-07
7.32457e-06
1.67271e-08
7.07602e-06
3.38162e-07
6.9861e-06
5.39938e-06
6.81286e-06
6.79922e-07
7.0277e-06
2.76081e-06
7.18701e-06
-1.60228e-06
6.52828e-06
-1.56247e-06
6.25908e-06
-1.2472e-06
6.36704e-06
4.46594e-06
5.97789e-06
-1.49349e-07
6.39442e-06
2.45922e-06
6.43822e-06
6.84101e-06
4.41474e-06
5.5879e-07
2.64967e-06
2.87145e-06
1.60771e-06
3.48249e-06
2.31216e-06
-2.92343e-06
2.14935e-06
6.82936e-08
2.12853e-06
7.84675e-07
2.00248e-06
1.51137e-06
1.9106e-06
2.16557e-06
2.15191e-06
3.0118e-06
2.08053e-06
1.32503e-06
2.07602e-06
1.29253e-06
1.69562e-06
1.12315e-06
1.52346e-06
-1.04215e-07
1.52668e-06
8.29393e-07
1.52726e-06
6.82335e-09
1.65719e-06
9.21681e-07
1.54874e-06
-4.89773e-07
1.6239e-06
-1.45954e-06
1.81867e-06
-1.67363e-06
1.82571e-06
-5.02174e-08
1.76389e-06
7.43317e-07
1.67177e-06
-5.67074e-07
1.54855e-06
-5.79078e-07
1.53466e-06
-1.05717e-06
1.37473e-06
-2.00658e-07
1.47539e-06
-1.48846e-06
1.3215e-06
-9.66577e-07
9.4847e-07
1.10828e-06
3.71638e-07
8.40842e-07
1.16769e-07
1.86607e-06
2.08243e-06
2.44968e-06
9.07116e-07
1.99553e-05
1.55557e-06
5.45147e-06
1.14299e-06
2.149e-06
9.50628e-07
1.91329e-06
9.38573e-07
8.26589e-07
8.64305e-07
5.67392e-07
7.72546e-07
4.11217e-07
6.96924e-07
2.90736e-07
6.33457e-07
1.78151e-07
5.68789e-07
1.65868e-07
5.01154e-07
1.27178e-07
4.30672e-07
9.3196e-08
3.60538e-07
6.50376e-08
2.92838e-07
4.29028e-08
2.28033e-07
2.60846e-08
1.66223e-07
1.40498e-08
1.08062e-07
6.0319e-09
5.42712e-08
1.79163e-09
4.71502e-09
1.37742e-10
-4.21247e-08
6.25516e-10
-8.81788e-08
1.87695e-09
-1.34571e-07
3.39456e-09
-1.8084e-07
4.78156e-09
-2.25267e-07
6.22053e-09
-2.65908e-07
8.04197e-09
-3.01434e-07
1.06419e-08
-3.3143e-07
1.38192e-08
-3.56186e-07
1.76047e-08
-3.76265e-07
2.1319e-08
-3.92306e-07
2.47482e-08
-4.04901e-07
2.75377e-08
-4.14593e-07
2.95728e-08
-4.21826e-07
3.04359e-08
-4.27022e-07
3.02341e-08
-4.30565e-07
2.8854e-08
-4.3287e-07
2.61148e-08
-4.34415e-07
2.23419e-08
-4.35622e-07
1.70456e-08
-4.36919e-07
1.07948e-08
-4.38587e-07
3.37785e-09
-4.40915e-07
-4.33782e-09
-4.44059e-07
-1.24242e-08
-4.48186e-07
-2.00192e-08
-4.53302e-07
-2.71972e-08
-4.59392e-07
-3.29824e-08
-4.66262e-07
-3.75218e-08
-4.73718e-07
-4.0037e-08
-4.81429e-07
-4.06612e-08
-4.89018e-07
-3.87269e-08
-4.95928e-07
-3.43181e-08
-5.01582e-07
-2.68587e-08
-5.05278e-07
-1.70474e-08
-5.42691e-09
7.73989e-06
-4.61162e-08
7.90472e-06
-1.62558e-07
7.61024e-06
5.53359e-07
7.82158e-06
4.76021e-07
7.31927e-06
-6.45927e-07
6.88174e-06
5.25672e-07
6.82084e-06
2.61102e-06
6.07566e-06
9.69518e-07
5.21308e-06
3.35526e-06
5.54887e-06
-7.66835e-07
5.32506e-06
-1.14872e-06
5.12132e-06
1.69613e-09
4.95231e-06
2.76087e-06
5.01774e-06
5.14087e-07
5.4905e-06
2.23842e-06
5.47439e-06
4.23016e-06
4.07925e-06
1.73769e-06
2.80347e-06
3.70191e-06
1.81068e-06
4.84237e-06
2.55159e-06
7.2155e-06
2.2415e-06
4.59254e-07
2.15848e-06
9.31282e-07
1.9412e-06
1.29964e-06
1.97538e-06
1.90438e-06
2.13071e-06
2.85842e-06
2.04196e-06
1.04678e-06
2.16639e-06
2.49542e-06
1.82192e-06
1.61387e-07
1.70632e-06
-8.20699e-08
1.72574e-06
7.53402e-07
1.70189e-06
8.42218e-08
1.8143e-06
1.00605e-06
1.79654e-06
-7.97935e-07
1.87338e-06
-1.83078e-06
1.89324e-06
-1.86758e-06
1.97158e-06
-1.48473e-07
1.89222e-06
8.02814e-07
1.70254e-06
-7.11454e-07
1.6513e-06
-8.77047e-07
1.64194e-06
-1.13501e-06
1.45304e-06
-3.22565e-07
1.64958e-06
-4.62906e-07
1.49329e-06
-9.58135e-07
9.96844e-07
1.72357e-06
4.06433e-07
9.34046e-07
3.70282e-07
2.10548e-06
2.94694e-06
5.77905e-06
1.18982e-06
-6.88779e-06
1.64494e-06
5.90902e-06
1.21557e-06
2.50014e-06
1.05895e-06
6.4835e-07
1.02799e-06
9.69562e-07
9.46932e-07
6.71275e-07
8.46432e-07
4.91999e-07
7.62874e-07
3.57269e-07
6.93776e-07
2.07207e-07
6.22701e-07
1.97402e-07
5.48633e-07
1.51286e-07
4.7148e-07
1.10851e-07
3.94706e-07
7.73994e-08
3.20595e-07
5.1097e-08
2.49646e-07
3.11253e-08
1.81972e-07
1.6818e-08
1.18289e-07
7.28577e-09
5.93892e-08
2.23391e-09
5.12087e-09
2.58868e-10
-4.61751e-08
8.32851e-10
-9.66162e-08
2.33118e-09
-1.4743e-07
4.13598e-09
-1.98108e-07
5.78398e-09
-2.46764e-07
7.47229e-09
-2.91274e-07
9.63246e-09
-3.3018e-07
1.26966e-08
-3.63031e-07
1.64691e-08
-3.90142e-07
2.09539e-08
-4.12134e-07
2.53656e-08
-4.29705e-07
2.94365e-08
-4.43501e-07
3.27494e-08
-4.54119e-07
3.51594e-08
-4.62044e-07
3.61804e-08
-4.67737e-07
3.59348e-08
-4.71619e-07
3.42786e-08
-4.74146e-07
3.10277e-08
-4.75838e-07
2.65282e-08
-4.77162e-07
2.02408e-08
-4.78582e-07
1.28083e-08
-4.80411e-07
4.00057e-09
-4.8296e-07
-5.16847e-09
-4.86402e-07
-1.4774e-08
-4.9092e-07
-2.3803e-08
-4.9652e-07
-3.23292e-08
-5.03186e-07
-3.92061e-08
-5.10708e-07
-4.45957e-08
-5.1887e-07
-4.75854e-08
-5.27312e-07
-4.83221e-08
-5.35619e-07
-4.6025e-08
-5.43182e-07
-4.07858e-08
-5.49369e-07
-3.19421e-08
-5.53411e-07
-2.04053e-08
-6.63977e-09
7.52716e-06
5.15771e-07
7.51666e-06
-2.69684e-07
6.86517e-06
1.02002e-06
6.49992e-06