/*--------------------------------*- C++ -*----------------------------------*\
  =========                 |
  \\      /  F ield         | OpenFOAM: The Open Source CFD Toolbox
   \\    /   O peration     | Website:  https://openfoam.org
    \\  /    A nd           | Version:  6
     \\/     M anipulation  |
\*---------------------------------------------------------------------------*/
FoamFile
{
    version     2.0;
    format      ascii;
    class       volScalarField;
    location    "0.005";
    object      rho;
}
// * * * * * * * * * * * * * * * * * * * * * * * * * * * * * * * * * * * * * //

dimensions      [1 -3 0 0 0 0 0];

internalField   nonuniform List<scalar> 
8000
(
1.15947
1.16544
1.17091
1.17342
1.17215
1.17242
1.17386
1.1736
1.1726
1.17797
1.16676
1.16462
1.13642
1.18018
1.18188
1.15783
1.13439
1.15021
1.19482
1.1524
1.08965
0.845474
0.444024
0.411823
0.300061
0.23455
0.218074
0.208459
0.20143
0.199114
0.195823
0.193395
0.193824
0.198872
0.205771
0.211412
0.217617
0.224379
0.230233
0.233152
0.235736
0.236349
0.228739
0.217041
0.199893
0.209435
0.287183
0.342881
0.44929
0.732926
1.03238
1.13283
1.16606
1.16858
1.1685
1.16834
1.16817
1.1678
1.1672
1.16646
1.1657
1.16497
1.16428
1.16366
1.16314
1.16274
1.16241
1.1621
1.16175
1.16134
1.16089
1.16044
1.16005
1.15974
1.1595
1.15933
1.1592
1.15911
1.15905
1.15902
1.15901
1.15905
1.15912
1.15923
1.15937
1.15955
1.15975
1.15996
1.16018
1.16039
1.16058
1.16075
1.16088
1.16099
1.16107
1.16113
1.16117
1.16121
1.16124
1.16129
1.15983
1.16567
1.17109
1.17367
1.17217
1.17224
1.17323
1.1722
1.1716
1.17577
1.16429
1.16219
1.13238
1.17567
1.17825
1.15596
1.13381
1.14649
1.1937
1.15026
1.0839
0.726331
0.207151
0.304039
0.285265
0.23135
0.216082
0.206727
0.200764
0.198842
0.195722
0.193258
0.19383
0.199199
0.206499
0.212564
0.218219
0.22539
0.23069
0.235116
0.237206
0.2368
0.229061
0.217328
0.200396
0.207131
0.289981
0.363644
0.496767
0.819274
1.05454
1.12105
1.16571
1.16857
1.1685
1.16834
1.16817
1.1678
1.1672
1.16646
1.1657
1.16497
1.16428
1.16366
1.16314
1.16274
1.16241
1.1621
1.16175
1.16134
1.16089
1.16044
1.16005
1.15974
1.1595
1.15933
1.1592
1.15911
1.15905
1.15902
1.15901
1.15905
1.15912
1.15923
1.15937
1.15955
1.15975
1.15996
1.16018
1.16039
1.16058
1.16075
1.16088
1.16099
1.16107
1.16113
1.16117
1.16121
1.16124
1.16129
1.1606
1.17101
1.17158
1.17194
1.1722
1.17175
1.1719
1.16966
1.13778
1.1706
1.15832
1.15632
1.12748
1.16511
1.07864
1.08404
1.13325
1.14124
1.18525
1.14468
1.09958
0.904259
0.402361
0.445069
0.342513
0.23585
0.242415
0.207206
0.200384
0.199262
0.195882
0.193109
0.194017
0.20001
0.208168
0.214583
0.219952
0.226447
0.232168
0.236113
0.23823
0.238839
0.230332
0.218346
0.201314
0.204152
0.33074
0.408176
0.845732
0.882826
1.06941
1.13953
1.16681
1.16863
1.1685
1.16834
1.16817
1.1678
1.1672
1.16646
1.1657
1.16497
1.16428
1.16366
1.16314
1.16274
1.16241
1.1621
1.16175
1.16134
1.16089
1.16044
1.16005
1.15974
1.1595
1.15933
1.1592
1.15911
1.15905
1.15902
1.15901
1.15905
1.15912
1.15923
1.15937
1.15955
1.15975
1.15996
1.16018
1.16039
1.16058
1.16075
1.16088
1.16099
1.16107
1.16113
1.16117
1.16121
1.16124
1.16129
1.16157
1.16668
1.17188
1.17487
1.17176
1.17058
1.17038
1.16686
1.16711
1.07411
1.13438
1.13195
1.12381
1.04957
1.16791
1.15132
1.13469
1.13991
1.00859
1.12624
1.08963
0.851937
0.646029
0.551878
0.398948
0.274181
0.226259
0.207148
0.199039
0.222182
0.195642
0.193187
0.1947
0.201339
0.210746
0.217418
0.222267
0.228633
0.233378
0.238618
0.239488
0.240175
0.231352
0.219165
0.202455
0.205321
0.317844
0.483748
0.710306
0.960798
1.09235
1.1539
1.16744
1.16867
1.1685
1.16834
1.16817
1.1678
1.1672
1.16646
1.1657
1.16497
1.16428
1.16366
1.16314
1.16274
1.16241
1.1621
1.16175
1.16134
1.16089
1.16044
1.16005
1.15974
1.1595
1.15933
1.1592
1.15911
1.15905
1.15902
1.15901
1.15905
1.15912
1.15923
1.15937
1.15955
1.15975
1.15996
1.16018
1.16039
1.16058
1.16075
1.16088
1.16099
1.16107
1.16113
1.16117
1.16121
1.16124
1.16129
1.163
1.16753
1.16352
1.17544
1.15234
1.16877
1.16919
1.15143
1.16662
1.04305
0.698018
0.756086
0.865335
1.15292
1.16219
1.05713
1.13422
0.959203
1.10678
1.08318
0.892604
0.831701
0.753053
0.552968
0.429123
0.297314
0.231535
0.205051
0.197357
0.199215
0.1964
0.1939
0.196036
0.203016
0.213939
0.246744
0.225456
0.230838
0.237387
0.240272
0.240879
0.24167
0.234329
0.220634
0.203863
0.205592
0.33207
0.548008
0.816854
1.02642
1.11153
1.15806
1.16743
1.16864
1.1685
1.16835
1.16817
1.1678
1.1672
1.16646
1.1657
1.16497
1.16428
1.16366
1.16314
1.16274
1.16241
1.1621
1.16175
1.16134
1.16089
1.16044
1.16005
1.15974
1.1595
1.15933
1.1592
1.15911
1.15905
1.15902
1.15901
1.15905
1.15912
1.15923
1.15937
1.15955
1.15975
1.15996
1.16018
1.16039
1.16058
1.16075
1.16088
1.16099
1.16107
1.16113
1.16117
1.16121
1.16124
1.16129
1.16484
1.16857
1.17324
1.17101
1.16766
1.15689
1.16836
1.16477
1.17027
1.15959
1.12736
1.13459
1.12982
1.16735
1.15971
1.14236
1.11865
0.895142
0.964605
0.805423
0.957171
0.769826
0.74324
0.527585
0.347467
0.297073
0.251559
0.226189
0.227161
0.207322
0.199344
0.195184
0.215573
0.205009
0.215149
0.222019
0.226664
0.233816
0.23875
0.242043
0.242276
0.243157
0.259976
0.221689
0.205661
0.204076
0.330478
0.578347
0.88366
1.05731
1.11119
1.14969
1.16686
1.16857
1.1685
1.16835
1.16817
1.1678
1.1672
1.16646
1.1657
1.16497
1.16428
1.16366
1.16314
1.16274
1.16241
1.1621
1.16175
1.16134
1.16089
1.16044
1.16005
1.15974
1.1595
1.15933
1.1592
1.15911
1.15905
1.15902
1.15901
1.15905
1.15912
1.15923
1.15937
1.15955
1.15975
1.15996
1.16018
1.16039
1.16058
1.16075
1.16088
1.16099
1.16107
1.16113
1.16117
1.16121
1.16124
1.16129
1.16707
1.16963
1.17371
1.17711
1.16892
1.16648
1.15264
1.1649
1.17134
1.16359
1.08057
1.07919
1.07725
1.16946
1.15144
1.1279
1.08402
0.982721
0.578037
0.805793
0.670654
0.781587
0.632205
0.462092
0.216546
0.259868
0.266697
0.24251
0.225722
0.212437
0.201096
0.197228
0.200229
0.207348
0.216671
0.223605
0.228492
0.2363
0.239742
0.266402
0.243524
0.244552
0.237609
0.222334
0.20807
0.201533
0.321594
0.582315
0.924341
1.08371
1.11068
1.13331
1.16575
1.16847
1.16849
1.16835
1.16817
1.1678
1.1672
1.16646
1.16569
1.16496
1.16428
1.16366
1.16314
1.16274
1.16241
1.1621
1.16175
1.16134
1.16089
1.16044
1.16005
1.15974
1.1595
1.15933
1.1592
1.15911
1.15905
1.15902
1.15901
1.15905
1.15912
1.15923
1.15937
1.15955
1.15975
1.15996
1.16018
1.16039
1.16058
1.16075
1.16088
1.16099
1.16107
1.16113
1.16117
1.16121
1.16124
1.16129
1.17318
1.17117
1.17439
1.17749
1.16827
1.15299
1.16973
1.16252
1.0775
1.15915
1.12893
1.16481
1.15703
1.15639
1.00014
0.946719
0.81658
0.661252
0.474559
0.473199
0.657346
0.648774
0.549705
0.450113
0.300347
0.298929
0.296349
0.262028
0.229933
0.209413
0.201246
0.199678
0.203413
0.210246
0.219494
0.226066
0.231364
0.237456
0.240262
0.243859
0.244454
0.245962
0.238061
0.223272
0.211375
0.199119
0.314173
0.829151
0.970283
1.17008
1.16599
1.14616
1.16631
1.16839
1.16848
1.16836
1.16817
1.1678
1.16719
1.16645
1.16569
1.16496
1.16428
1.16366
1.16314
1.16274
1.16241
1.1621
1.16175
1.16134
1.16089
1.16044
1.16005
1.15974
1.1595
1.15933
1.1592
1.15911
1.15905
1.15902
1.15901
1.15905
1.15912
1.15923
1.15937
1.15955
1.15975
1.15996
1.16018
1.16039
1.16058
1.16075
1.16088
1.16099
1.16107
1.16112
1.16117
1.16121
1.16124
1.16129
1.17667
1.17029
1.17498
1.17603
1.15997
1.16335
1.14697
1.14984
0.944683
1.14387
1.0352
1.07079
1.15871
1.13691
1.09972
0.920531
0.779424
0.571051
0.223551
0.419096
0.514428
0.454537
0.514553
0.375225
0.304404
0.331942
0.306486
0.261285
0.219492
0.20178
0.214274
0.216434
0.207466
0.214488
0.223321
0.228799
0.233875
0.238231
0.240295
0.243685
0.267922
0.270021
0.23863
0.223402
0.231034
0.213268
0.317714
0.597752
0.982561
1.12159
1.12239
1.15285
1.16632
1.16817
1.16836
1.16837
1.16817
1.1678
1.16719
1.16645
1.16569
1.16496
1.16428
1.16366
1.16314
1.16274
1.16241
1.1621
1.16175
1.16134
1.16089
1.16044
1.16005
1.15974
1.1595
1.15933
1.1592
1.15911
1.15905
1.15902
1.15901
1.15905
1.15912
1.15923
1.15937
1.15955
1.15975
1.15996
1.16018
1.16039
1.16058
1.16075
1.16088
1.16099
1.16107
1.16112
1.16117
1.16121
1.16124
1.16129
1.1757
1.17447
1.17286
1.16657
1.16713
1.13956
1.18001
1.14947
1.1367
1.01628
1.12531
1.08175
1.01263
0.921133
0.769771
0.877379
0.920687
0.601988
0.281269
0.368205
0.405673
0.377536
0.392436
0.35532
0.337783
0.323079
0.290116
0.249594
0.217002
0.223231
0.201342
0.204954
0.230124
0.217638
0.226559
0.257107
0.235054
0.238628
0.23988
0.242839
0.267318
0.24668
0.238863
0.223166
0.207376
0.200665
0.424608
0.627181
1.00909
1.12808
1.13717
1.1526
1.16552
1.16763
1.16815
1.16838
1.16817
1.1678
1.16719
1.16645
1.16569
1.16496
1.16428
1.16366
1.16314
1.16274
1.16241
1.1621
1.16175
1.16134
1.16089
1.16044
1.16005
1.15974
1.1595
1.15933
1.1592
1.15911
1.15905
1.15902
1.15901
1.15905
1.15912
1.15923
1.15937
1.15955
1.15975
1.15996
1.16018
1.16039
1.16058
1.16074
1.16088
1.16099
1.16106
1.16112
1.16117
1.16121
1.16124
1.16129
1.18344
1.17363
1.17334
1.17235
1.16714
1.09988
1.09908
1.01323
1.08129
1.06701
1.03615
0.891517
0.971765
0.848242
0.918146
0.9253
0.833518
0.47076
0.245211
0.229953
0.328167
0.268078
0.308134
0.250207
0.272273
0.286332
0.258492
0.232125
0.210797
0.203294
0.203083
0.207763
0.214579
0.22186
0.228829
0.25731
0.235672
0.261554
0.239097
0.241513
0.243116
0.245916
0.239043
0.222074
0.205432
0.20327
0.347496
0.663134
1.02004
1.16818
1.12456
1.15239
1.16395
1.16651
1.16767
1.16827
1.16817
1.16779
1.16719
1.16645
1.16569
1.16496
1.16428
1.16366
1.16314
1.16274
1.16241
1.1621
1.16175
1.16134
1.16089
1.16044
1.16006
1.15974
1.1595
1.15933
1.1592
1.15911
1.15905
1.15902
1.15901
1.15905
1.15912
1.15923
1.15937
1.15955
1.15975
1.15996
1.16018
1.16039
1.16058
1.16074
1.16088
1.16098
1.16106
1.16112
1.16117
1.16121
1.16124
1.16129
1.18012
1.16937
1.16577
1.08647
1.14657
1.01799
0.997353
0.994181
0.76629
0.766982
0.745312
0.720065
0.677416
0.648441
0.721555
0.726997
0.665371
0.438427
0.250009
0.260116
0.292103
0.277726
0.256589
0.237857
0.253911
0.255054
0.23139
0.233613
0.204784
0.217423
0.206247
0.211936
0.218207
0.251508
0.229455
0.233076
0.258297
0.237807
0.237989
0.239915
0.241633
0.244735
0.26183
0.221135
0.20366
0.219723
0.53013
0.965148
1.03039
1.11669
1.16543
1.1495
1.16097
1.16443
1.16652
1.16806
1.16817
1.16779
1.16719
1.16645
1.16569
1.16496
1.16428
1.16366
1.16314
1.16274
1.16241
1.1621
1.16176
1.16134
1.16089
1.16044
1.16006
1.15974
1.15951
1.15933
1.1592
1.15911
1.15905
1.15902
1.15902
1.15905
1.15912
1.15923
1.15937
1.15955
1.15974
1.15996
1.16018
1.16039
1.16058
1.16074
1.16088
1.16098
1.16106
1.16112
1.16117
1.1612
1.16124
1.16129
1.17679
1.14071
1.07435
0.946391
0.867572
0.79102
0.799898
0.60725
0.275951
0.321373
0.445927
0.467141
0.45113
0.51076
0.505401
0.517139
0.430839
0.405483
0.313066
0.250063
0.247964
0.243129
0.229496
0.22115
0.232822
0.232536
0.216676
0.225722
0.20217
0.204988
0.209707
0.216178
0.22232
0.227006
0.229072
0.231512
0.256837
0.25976
0.236733
0.238122
0.240254
0.267578
0.261014
0.219719
0.201865
0.233836
0.409129
0.976791
1.04191
1.10604
1.12428
1.14895
1.15559
1.16054
1.16423
1.16736
1.16817
1.16779
1.16718
1.16644
1.16568
1.16496
1.16427
1.16366
1.16314
1.16274
1.16241
1.1621
1.16176
1.16134
1.16089
1.16044
1.16006
1.15974
1.15951
1.15933
1.1592
1.15911
1.15905
1.15902
1.15902
1.15905
1.15912
1.15923
1.15937
1.15955
1.15974
1.15996
1.16018
1.16039
1.16058
1.16074
1.16088
1.16098
1.16106
1.16112
1.16117
1.1612
1.16124
1.16129
1.15601
0.660313
0.616649
0.58667
0.478746
0.299171
0.424676
0.419108
0.30889
0.315489
0.313196
0.318772
0.322552
0.332697
0.35269
0.375513
0.359734
0.266787
0.272021
0.228975
0.215987
0.21922
0.217213
0.215439
0.225684
0.216111
0.222833
0.203735
0.20295
0.209336
0.215212
0.220782
0.251446
0.228101
0.227831
0.228158
0.230997
0.257265
0.235363
0.236069
0.238842
0.243856
0.235495
0.217087
0.200169
0.236061
0.445652
0.801626
1.05658
1.10691
1.13128
1.1481
1.1518
1.15439
1.16045
1.1648
1.16798
1.16779
1.16718
1.16644
1.16568
1.16495
1.16427
1.16366
1.16314
1.16274
1.16241
1.16211
1.16176
1.16134
1.16089
1.16044
1.16006
1.15974
1.15951
1.15933
1.1592
1.15911
1.15905
1.15902
1.15902
1.15905
1.15912
1.15923
1.15937
1.15955
1.15974
1.15996
1.16017
1.16038
1.16058
1.16074
1.16088
1.16098
1.16106
1.16112
1.16117
1.1612
1.16124
1.16129
0.770528
0.211432
0.220363
0.239755
0.265242
0.229455
0.291588
0.253434
0.225306
0.242566
0.237054
0.238315
0.243917
0.246686
0.236184
0.276715
0.29567
0.293456
0.25487
0.217419
0.215521
0.215353
0.210214
0.209414
0.208958
0.227079
0.203247
0.201583
0.205482
0.24246
0.245224
0.249533
0.252344
0.253412
0.251703
0.250278
0.224422
0.226812
0.25742
0.231742
0.260151
0.242552
0.257939
0.23764
0.198704
0.293714
0.494291
0.845744
1.0667
1.10926
1.13471
1.14827
1.15068
1.15087
1.15493
1.16655
1.16804
1.16779
1.16718
1.16644
1.16568
1.16495
1.16427
1.16366
1.16314
1.16274
1.16241
1.16211
1.16176
1.16134
1.16089
1.16045
1.16006
1.15974
1.15951
1.15933
1.1592
1.15911
1.15905
1.15902
1.15902
1.15905
1.15912
1.15923
1.15937
1.15954
1.15974
1.15996
1.16017
1.16038
1.16057
1.16074
1.16087
1.16098
1.16106
1.16112
1.16116
1.1612
1.16124
1.16129
0.287162
0.214001
0.210369
0.22937
0.213448
0.215817
0.230894
0.221151
0.214155
0.218684
0.2368
0.230442
0.211896
0.211529
0.216857
0.231811
0.247005
0.254136
0.231519
0.216412
0.208931
0.205657
0.204034
0.20387
0.221137
0.204117
0.202776
0.203922
0.20821
0.215309
0.243626
0.22162
0.223951
0.22358
0.220335
0.246873
0.247902
0.222855
0.255401
0.255041
0.230911
0.263287
0.255158
0.213375
0.198161
0.290517
0.563626
0.898005
1.08097
1.11244
1.13807
1.15081
1.15312
1.15067
1.14124
1.16493
1.16802
1.16778
1.16717
1.16644
1.16568
1.16495
1.16427
1.16366
1.16314
1.16274
1.16241
1.16211
1.16176
1.16134
1.16089
1.16045
1.16006
1.15974
1.15951
1.15933
1.1592
1.15911
1.15905
1.15902
1.15902
1.15905
1.15912
1.15923
1.15937
1.15954
1.15974
1.15995
1.16017
1.16038
1.16057
1.16074
1.16087
1.16098
1.16106
1.16112
1.16116
1.1612
1.16124
1.16129
0.188442
0.216379
0.200216
0.202051
0.211551
0.205961
0.205773
0.204781
0.207534
0.238376
0.2345
0.257096
0.236237
0.204332
0.200165
0.203574
0.212287
0.221573
0.212792
0.209355
0.203696
0.200036
0.199661
0.216051
0.214151
0.204009
0.218257
0.224237
0.228539
0.233343
0.21541
0.218068
0.219923
0.217773
0.243788
0.240993
0.243015
0.217736
0.225712
0.252242
0.254561
0.231484
0.251231
0.210934
0.216707
0.441746
0.902249
0.948105
1.09477
1.1151
1.14627
1.15779
1.16129
1.16063
1.16152
1.16768
1.16816
1.16778
1.16717
1.16643
1.16567
1.16495
1.16427
1.16366
1.16314
1.16274
1.16241
1.16211
1.16176
1.16134
1.16089
1.16045
1.16006
1.15975
1.15951
1.15933
1.15921
1.15911
1.15905
1.15902
1.15902
1.15905
1.15912
1.15923
1.15937
1.15954
1.15974
1.15995
1.16017
1.16038
1.16057
1.16074
1.16087
1.16098
1.16106
1.16112
1.16116
1.1612
1.16124
1.16128
0.172505
0.203372
0.193113
0.19086
0.198867
0.211091
0.194659
0.194504
0.197676
0.205993
0.220666
0.250583
0.246114
0.225957
0.19456
0.193601
0.211308
0.203847
0.21496
0.201936
0.198243
0.212306
0.196613
0.197352
0.200281
0.200641
0.200413
0.201358
0.203375
0.206843
0.2123
0.240865
0.245161
0.214372
0.238895
0.208899
0.210891
0.213495
0.218367
0.220236
0.251347
0.256198
0.219997
0.207691
0.220331
0.539951
0.714919
0.993206
1.10526
1.12695
1.15564
1.16264
1.16555
1.16617
1.16702
1.16825
1.16816
1.16777
1.16716
1.16643
1.16567
1.16494
1.16427
1.16365
1.16314
1.16274
1.16241
1.16211
1.16176
1.16134
1.16089
1.16045
1.16006
1.15975
1.15951
1.15933
1.15921
1.15912
1.15905
1.15902
1.15902
1.15905
1.15912
1.15923
1.15937
1.15954
1.15974
1.15995
1.16017
1.16038
1.16057
1.16073
1.16087
1.16097
1.16106
1.16112
1.16116
1.1612
1.16124
1.16128
0.168395
0.186893
0.191002
0.188364
0.187662
0.188741
0.189172
0.188713
0.189082
0.192326
0.19552
0.196463
0.215652
0.20792
0.189192
0.188848
0.191016
0.194866
0.194394
0.195244
0.193035
0.19257
0.193622
0.194583
0.196306
0.210663
0.196887
0.210998
0.199041
0.203086
0.228036
0.231463
0.215259
0.23697
0.23101
0.204331
0.206279
0.208018
0.239423
0.216338
0.246534
0.224941
0.214781
0.229367
0.232749
0.417412
0.78578
1.02844
1.10606
1.1388
1.15868
1.16459
1.16742
1.168
1.16815
1.16838
1.16815
1.16777
1.16716
1.16642
1.16566
1.16494
1.16426
1.16365
1.16314
1.16274
1.16241
1.16211
1.16176
1.16134
1.16089
1.16045
1.16006
1.15975
1.15951
1.15934
1.15921
1.15912
1.15905
1.15902
1.15902
1.15905
1.15912
1.15923
1.15937
1.15954
1.15974
1.15995
1.16017
1.16038
1.16057
1.16073
1.16087
1.16097
1.16105
1.16111
1.16116
1.1612
1.16124
1.16128
0.167351
0.175599
0.184023
0.18934
0.189589
0.188845
0.189034
0.187828
0.18684
0.187541
0.188977
0.19119
0.193079
0.192455
0.191105
0.18829
0.188011
0.18952
0.190887
0.210733
0.189474
0.211303
0.191055
0.19161
0.193189
0.193157
0.193209
0.193915
0.196252
0.215012
0.220907
0.202659
0.229534
0.228562
0.203532
0.202288
0.222728
0.206864
0.229131
0.213399
0.216396
0.24742
0.20956
0.202528
0.257889
0.475052
0.843218
1.05758
1.11248
1.1405
1.15666
1.1646
1.16792
1.16841
1.16834
1.16835
1.16815
1.16776
1.16715
1.16641
1.16566
1.16494
1.16426
1.16365
1.16314
1.16274
1.16242
1.16211
1.16176
1.16134
1.16089
1.16045
1.16006
1.15975
1.15951
1.15934
1.15921
1.15912
1.15906
1.15902
1.15902
1.15905
1.15912
1.15923
1.15937
1.15954
1.15974
1.15995
1.16017
1.16037
1.16056
1.16073
1.16086
1.16097
1.16105
1.16111
1.16116
1.1612
1.16124
1.16128
0.167067
0.169909
0.174596
0.181156
0.18797
0.190284
0.190352
0.190076
0.190342
0.192986
0.19696
0.202716
0.207063
0.205991
0.200368
0.193138
0.189482
0.206493
0.188972
0.18878
0.207645
0.188597
0.18929
0.189532
0.190737
0.190453
0.21314
0.191967
0.194479
0.215389
0.19941
0.199267
0.202947
0.202704
0.201504
0.200827
0.202094
0.20465
0.220027
0.229522
0.213997
0.216893
0.205888
0.227188
0.295313
0.539464
0.892694
1.07418
1.11594
1.13421
1.14891
1.16178
1.1675
1.16831
1.16829
1.16833
1.16815
1.16776
1.16715
1.16641
1.16565
1.16493
1.16426
1.16365
1.16314
1.16274
1.16242
1.16211
1.16176
1.16134
1.16089
1.16045
1.16006
1.15975
1.15951
1.15934
1.15921
1.15912
1.15906
1.15902
1.15902
1.15905
1.15912
1.15922
1.15937
1.15954
1.15974
1.15995
1.16016
1.16037
1.16056
1.16073
1.16086
1.16097
1.16105
1.16111
1.16116
1.1612
1.16124
1.16128
0.167021
0.168066
0.169946
0.17341
0.179394
0.184628
0.187561
0.190788
0.195321
0.202939
0.213573
0.224328
0.23046
0.227584
0.217899
0.205676
0.195827
0.192035
0.188628
0.205597
0.202254
0.187641
0.188487
0.213254
0.214195
0.189471
0.189557
0.191214
0.193369
0.220251
0.222906
0.197544
0.200837
0.201136
0.22303
0.199855
0.19992
0.216739
0.21583
0.207341
0.210901
0.211844
0.202362
0.203477
0.283829
0.60267
0.939088
1.08839
1.11919
1.12685
1.14267
1.1488
1.16608
1.16798
1.16804
1.16815
1.16814
1.16775
1.16714
1.1664
1.16565
1.16493
1.16425
1.16365
1.16314
1.16274
1.16242
1.16211
1.16176
1.16135
1.16089
1.16045
1.16006
1.15975
1.15951
1.15934
1.15921
1.15912
1.15906
1.15902
1.15902
1.15905
1.15912
1.15922
1.15937
1.15954
1.15973
1.15995
1.16016
1.16037
1.16056
1.16072
1.16086
1.16097
1.16105
1.16111
1.16116
1.1612
1.16124
1.16128
0.1671
0.167777
0.168907
0.170731
0.174208
0.178906
0.183952
0.191065
0.201767
0.218837
0.238801
0.255232
0.262183
0.256156
0.2408
0.222371
0.20672
0.198736
0.190763
0.188167
0.185403
0.18727
0.188063
0.188319
0.189281
0.189226
0.213799
0.191095
0.193109
0.195753
0.197549
0.226498
0.22998
0.200543
0.199824
0.199504
0.198765
0.202833
0.202864
0.205652
0.209046
0.208781
0.199355
0.209081
0.325963
0.667011
0.978756
1.10029
1.12149
1.13286
1.1419
1.14498
1.16459
1.16765
1.16757
1.16764
1.16813
1.16775
1.16713
1.16639
1.16564
1.16492
1.16425
1.16365
1.16314
1.16274
1.16242
1.16211
1.16176
1.16135
1.16089
1.16045
1.16006
1.15975
1.15952
1.15934
1.15921
1.15912
1.15906
1.15903
1.15902
1.15905
1.15912
1.15922
1.15937
1.15954
1.15973
1.15994
1.16016
1.16037
1.16056
1.16072
1.16086
1.16096
1.16104
1.16111
1.16115
1.16119
1.16124
1.16128
0.167309
0.1682
0.169412
0.171217
0.174208
0.178604
0.186283
0.199019
0.21989
0.248151
0.277917
0.297793
0.302326
0.290789
0.268323
0.242466
0.220649
0.205546
0.195723
0.189941
0.203205
0.18748
0.188179
0.188079
0.189078
0.189435
0.190059
0.19168
0.19366
0.196365
0.198178
0.228095
0.20038
0.200562
0.199795
0.19961
0.20792
0.201104
0.2018
0.204169
0.207546
0.226191
0.197723
0.219679
0.377264
0.728694
1.00943
1.1046
1.12662
1.13792
1.1435
1.15753
1.16683
1.16766
1.16713
1.16587
1.16791
1.16774
1.16712
1.16639
1.16564
1.16492
1.16425
1.16364
1.16314
1.16274
1.16242
1.16211
1.16176
1.16135
1.16089
1.16045
1.16006
1.15975
1.15952
1.15934
1.15921
1.15912
1.15906
1.15903
1.15902
1.15905
1.15912
1.15922
1.15937
1.15954
1.15973
1.15994
1.16016
1.16036
1.16055
1.16072
1.16085
1.16096
1.16104
1.1611
1.16115
1.16119
1.16124
1.16128
0.167727
0.16921
0.17088
0.173428
0.17757
0.184381
0.197975
0.221298
0.254619
0.295068
0.331238
0.350352
0.348771
0.32908
0.298672
0.265267
0.23675
0.216271
0.202629
0.193574
0.189036
0.188306
0.188753
0.18835
0.189233
0.212985
0.214449
0.192963
0.195178
0.197966
0.199664
0.199494
0.200985
0.200868
0.2002
0.200191
0.199095
0.199936
0.200201
0.202852
0.205928
0.20374
0.198475
0.274226
0.43361
0.785231
1.03554
1.10893
1.13138
1.13957
1.15203
1.16405
1.16782
1.16793
1.1675
1.16754
1.16803
1.16773
1.16712
1.16638
1.16563
1.16491
1.16424
1.16364
1.16314
1.16274
1.16242
1.16211
1.16176
1.16135
1.16089
1.16045
1.16006
1.15975
1.15952
1.15934
1.15922
1.15912
1.15906
1.15903
1.15902
1.15905
1.15912
1.15922
1.15936
1.15954
1.15973
1.15994
1.16015
1.16036
1.16055
1.16071
1.16085
1.16096
1.16104
1.1611
1.16115
1.16119
1.16123
1.16128
0.16853
0.171106
0.173797
0.177611
0.184448
0.197324
0.22089
0.258633
0.306456
0.357062
0.395201
0.408935
0.398118
0.368759
0.329934
0.289721
0.254651
0.228894
0.210495
0.199838
0.193165
0.190738
0.206802
0.189576
0.190408
0.192079
0.193291
0.195278
0.197636
0.200421
0.201748
0.20089
0.202005
0.21902
0.210847
0.200442
0.198735
0.198772
0.199412
0.20165
0.204199
0.201985
0.20184
0.259945
0.498905
0.835881
1.05646
1.11431
1.13568
1.14108
1.15304
1.16596
1.16832
1.16826
1.16799
1.16809
1.16812
1.16773
1.16711
1.16637
1.16562
1.16491
1.16424
1.16364
1.16313
1.16274
1.16242
1.16212
1.16176
1.16135
1.16089
1.16045
1.16007
1.15976
1.15952
1.15935
1.15922
1.15913
1.15906
1.15903
1.15902
1.15905
1.15912
1.15922
1.15936
1.15953
1.15973
1.15994
1.16015
1.16036
1.16055
1.16071
1.16085
1.16095
1.16104
1.1611
1.16115
1.16119
1.16123
1.16128
0.170036
0.175109
0.179711
0.186617
0.198154
0.219701
0.257674
0.311308
0.372271
0.428673
0.464051
0.469147
0.447289
0.407849
0.36096
0.314607
0.273863
0.2431
0.220995
0.207371
0.198598
0.19497
0.192272
0.192199
0.210535
0.195066
0.196782
0.220405
0.201023
0.20359
0.204247
0.203021
0.203374
0.202567
0.202461
0.200216
0.197718
0.197717
0.198703
0.200066
0.202319
0.201455
0.208939
0.377877
0.563854
0.883466
1.07022
1.11982
1.13941
1.14573
1.16044
1.16699
1.1686
1.1685
1.16827
1.16829
1.16811
1.16772
1.1671
1.16636
1.16561
1.1649
1.16424
1.16364
1.16313
1.16274
1.16242
1.16212
1.16176
1.16135
1.16089
1.16045
1.16007
1.15976
1.15952
1.15935
1.15922
1.15913
1.15907
1.15903
1.15903
1.15905
1.15912
1.15922
1.15936
1.15953
1.15973
1.15993
1.16015
1.16035
1.16054
1.16071
1.16084
1.16095
1.16103
1.1611
1.16115
1.16119
1.16123
1.16128
0.173033
0.184246
0.194859
0.205838
0.224451
0.258024
0.311861
0.379525
0.448167
0.505857
0.53388
0.527276
0.494374
0.445303
0.390949
0.339059
0.293785
0.258662
0.233229
0.21627
0.214188
0.200826
0.198074
0.196475
0.214989
0.199499
0.201599
0.203243
0.205481
0.207362
0.207066
0.205498
0.204955
0.203984
0.202747
0.199143
0.196555
0.196858
0.198112
0.199242
0.226525
0.202638
0.220747
0.328142
0.633213
0.929012
1.08209
1.12523
1.14304
1.14738
1.16202
1.16736
1.16873
1.16862
1.16842
1.16828
1.16811
1.16771
1.16709
1.16635
1.16561
1.1649
1.16423
1.16363
1.16313
1.16274
1.16242
1.16212
1.16177
1.16135
1.16089
1.16045
1.16007
1.15976
1.15952
1.15935
1.15922
1.15913
1.15907
1.15903
1.15903
1.15905
1.15912
1.15922
1.15936
1.15953
1.15972
1.15993
1.16014
1.16035
1.16054
1.1607
1.16084
1.16095
1.16103
1.16109
1.16114
1.16119
1.16123
1.16128
0.179926
0.20609
0.229017
0.247364
0.275174
0.322299
0.388264
0.463719
0.534379
0.585116
0.599783
0.580629
0.538185
0.480904
0.419865
0.36297
0.314012
0.275168
0.246848
0.22773
0.216026
0.209759
0.205452
0.202883
0.201962
0.205266
0.231478
0.209154
0.210636
0.211592
0.210141
0.20814
0.206996
0.20472
0.201905
0.197661
0.195579
0.196352
0.197598
0.198483
0.200453
0.205939
0.238127
0.380975
0.704164
0.968237
1.09163
1.13058
1.14552
1.15237
1.1617
1.16724
1.16874
1.16869
1.16841
1.16828
1.1681
1.1677
1.16708
1.16634
1.1656
1.16489
1.16423
1.16363
1.16313
1.16274
1.16242
1.16212
1.16177
1.16135
1.1609
1.16045
1.16007
1.15976
1.15953
1.15935
1.15922
1.15913
1.15907
1.15903
1.15903
1.15906
1.15912
1.15922
1.15936
1.15953
1.15972
1.15993
1.16014
1.16035
1.16054
1.1607
1.16084
1.16094
1.16103
1.16109
1.16114
1.16119
1.16123
1.16128
0.202074
0.265144
0.311179
0.337061
0.369283
0.421318
0.488319
0.559258
0.619439
0.654046
0.658282
0.628741
0.578686
0.514859
0.44816
0.38675
0.33443
0.292531
0.261634
0.240728
0.22733
0.220558
0.215294
0.211473
0.209005
0.236633
0.237088
0.215788
0.216373
0.216026
0.232352
0.211067
0.209452
0.205038
0.200373
0.196546
0.19495
0.196193
0.197178
0.198077
0.201032
0.212742
0.263703
0.624099
0.769633
1.00128
1.09929
1.13566
1.14971
1.15539
1.15948
1.16672
1.16868
1.16867
1.1684
1.16827
1.1681
1.16769
1.16707
1.16633
1.16559
1.16488
1.16422
1.16363
1.16313
1.16274
1.16243
1.16212
1.16177
1.16135
1.1609
1.16045
1.16007
1.15976
1.15953
1.15935
1.15923
1.15913
1.15907
1.15903
1.15903
1.15906
1.15912
1.15922
1.15936
1.15953
1.15972
1.15993
1.16014
1.16034
1.16053
1.1607
1.16083
1.16094
1.16102
1.16109
1.16114
1.16118
1.16123
1.16128
0.933861
0.770518
0.678536
0.628855
0.615732
0.630012
0.660929
0.696753
0.726778
0.741198
0.731146
0.689712
0.627936
0.557908
0.486308
0.420888
0.365916
0.321688
0.288339
0.26507
0.249886
0.240342
0.235581
0.231122
0.226875
0.228488
0.228449
0.227987
0.226157
0.223279
0.219839
0.215814
0.209607
0.203513
0.19866
0.195146
0.194408
0.196597
0.196834
0.198807
0.205468
0.230681
0.448376
0.587152
0.880507
1.04767
1.11692
1.1483
1.15835
1.15991
1.16238
1.16665
1.16875
1.16865
1.16839
1.16826
1.16808
1.16768
1.16705
1.16632
1.16558
1.16487
1.16422
1.16362
1.16313
1.16274
1.16243
1.16212
1.16177
1.16135
1.1609
1.16046
1.16007
1.15976
1.15953
1.15936
1.15923
1.15914
1.15907
1.15904
1.15903
1.15906
1.15912
1.15922
1.15936
1.15953
1.15972
1.15992
1.16013
1.16034
1.16053
1.16069
1.16083
1.16093
1.16102
1.16108
1.16113
1.16118
1.16123
1.16128
1.13458
1.05973
0.981147
0.916566
0.871956
0.847156
0.838718
0.839078
0.839462
0.831371
0.80855
0.76609
0.698264
0.620898
0.54422
0.473255
0.413221
0.365465
0.328504
0.301666
0.283832
0.271979
0.264416
0.258624
0.25393
0.251252
0.247178
0.243172
0.236795
0.229519
0.223248
0.217647
0.210299
0.203862
0.198516
0.195221
0.195788
0.197636
0.198617
0.20455
0.220934
0.367155
0.597862
0.723484
0.970264
1.07966
1.13461
1.15792
1.1611
1.16274
1.16597
1.16827
1.16886
1.16862
1.16837
1.16825
1.16807
1.16765
1.16702
1.16629
1.16556
1.16486
1.1642
1.16362
1.16313
1.16274
1.16243
1.16212
1.16177
1.16135
1.1609
1.16046
1.16008
1.15977
1.15954
1.15936
1.15923
1.15914
1.15908
1.15904
1.15903
1.15906
1.15912
1.15922
1.15936
1.15952
1.15971
1.15992
1.16013
1.16033
1.16052
1.16068
1.16082
1.16092
1.16101
1.16107
1.16113
1.16118
1.16123
1.16128
1.16437
1.14421
1.11089
1.06979
1.02819
0.993162
0.966382
0.946093
0.926657
0.903128
0.871001
0.826233
0.765284
0.685721
0.606257
0.5327
0.469029
0.417771
0.377942
0.347695
0.325965
0.310579
0.299097
0.289274
0.280472
0.272335
0.265289
0.256376
0.246336
0.235824
0.226312
0.219008
0.213342
0.206198
0.200131
0.197252
0.200484
0.200016
0.205477
0.220711
0.257588
0.412529
0.501172
0.84865
1.03361
1.1044
1.14745
1.16125
1.16204
1.16399
1.16687
1.16851
1.16885
1.16859
1.16835
1.16823
1.16805
1.16763
1.16699
1.16626
1.16553
1.16484
1.16419
1.16361
1.16312
1.16274
1.16243
1.16213
1.16177
1.16135
1.1609
1.16046
1.16008
1.15977
1.15954
1.15937
1.15924
1.15915
1.15908
1.15904
1.15904
1.15906
1.15912
1.15922
1.15936
1.15952
1.15971
1.15991
1.16012
1.16032
1.16051
1.16067
1.1608
1.16091
1.161
1.16107
1.16112
1.16117
1.16122
1.16128
1.16921
1.16444
1.1533
1.13378
1.1075
1.07843
1.04981
1.02173
0.993186
0.960738
0.922245
0.875702
0.817811
0.745711
0.665533
0.591748
0.527048
0.473474
0.430958
0.397365
0.370729
0.350045
0.33309
0.317778
0.303661
0.289701
0.278418
0.266124
0.254021
0.242194
0.2318
0.222811
0.217801
0.210385
0.204015
0.202488
0.205582
0.207659
0.221021
0.256959
0.331091
0.438979
0.672619
0.960232
1.07175
1.12432
1.15591
1.16156
1.16223
1.16463
1.16728
1.1686
1.16882
1.16855
1.16833
1.16822
1.16803
1.1676
1.16696
1.16623
1.16551
1.16482
1.16418
1.1636
1.16312
1.16274
1.16244
1.16213
1.16178
1.16135
1.1609
1.16046
1.16008
1.15978
1.15955
1.15937
1.15924
1.15915
1.15909
1.15905
1.15904
1.15906
1.15912
1.15922
1.15935
1.15951
1.1597
1.1599
1.16011
1.16031
1.16049
1.16066
1.16079
1.1609
1.16099
1.16106
1.16111
1.16117
1.16122
1.16128
1.16984
1.16865
1.16487
1.15642
1.14231
1.12313
1.10013
1.07362
1.04256
1.0066
0.964608
0.916201
0.859126
0.790944
0.715763
0.641903
0.577108
0.522072
0.476846
0.439763
0.408641
0.382457
0.359882
0.339414
0.320457
0.302819
0.287249
0.272738
0.259437
0.247273
0.237051
0.229167
0.224889
0.217418
0.211344
0.213289
0.213244
0.224143
0.250657
0.328016
0.442192
0.585271
0.855172
1.03847
1.1021
1.14484
1.16285
1.16196
1.16212
1.16522
1.16757
1.16867
1.16879
1.16852
1.1683
1.1682
1.168
1.16756
1.16692
1.1662
1.16548
1.1648
1.16416
1.16359
1.16312
1.16275
1.16244
1.16214
1.16178
1.16136
1.1609
1.16046
1.16008
1.15978
1.15955
1.15938
1.15925
1.15916
1.15909
1.15905
1.15904
1.15907
1.15912
1.15922
1.15935
1.15951
1.15969
1.15989
1.1601
1.1603
1.16048
1.16064
1.16078
1.16089
1.16098
1.16105
1.16111
1.16116
1.16122
1.16128
1.16928
1.16884
1.16744
1.16375
1.15665
1.14537
1.12927
1.1075
1.07873
1.04227
0.998891
0.950735
0.89568
0.827327
0.755018
0.681816
0.615736
0.558684
0.510549
0.469889
0.434894
0.404237
0.377183
0.352666
0.33023