/*--------------------------------*- C++ -*----------------------------------*\
  =========                 |
  \\      /  F ield         | OpenFOAM: The Open Source CFD Toolbox
   \\    /   O peration     | Website:  https://openfoam.org
    \\  /    A nd           | Version:  6
     \\/     M anipulation  |
\*---------------------------------------------------------------------------*/
FoamFile
{
    version     2.0;
    format      ascii;
    class       volScalarField;
    location    "0.005";
    object      S-CH2;
}
// * * * * * * * * * * * * * * * * * * * * * * * * * * * * * * * * * * * * * //

dimensions      [0 0 0 0 0 0 0];

internalField   nonuniform List<scalar> 
8000
(
1.23624e-36
6.65275e-32
5.22063e-31
8.15156e-30
2.11024e-28
6.63635e-27
1.45832e-25
1.71513e-24
1.04485e-23
4.05202e-23
1.28631e-22
3.27801e-22
7.16806e-22
1.25091e-21
1.37737e-21
1.33997e-21
1.9728e-21
5.93685e-21
3.11776e-20
3.75197e-19
1.90039e-17
1.51946e-12
1.232e-08
1.09697e-08
9.26887e-08
2.81315e-07
3.34775e-07
3.2025e-07
2.72883e-07
2.13861e-07
1.77259e-07
1.65762e-07
1.38817e-07
1.22079e-07
8.83743e-08
6.7873e-08
5.47661e-08
4.54287e-08
3.98206e-08
3.44275e-08
3.64349e-08
3.46921e-08
2.87067e-08
3.27418e-08
8.65074e-08
9.44719e-08
3.53007e-09
3.2034e-10
1.02828e-11
1.82874e-15
1.13109e-18
2.46159e-20
7.86598e-22
0
0
0
0
0
0
0
0
0
0
0
0
0
0
0
0
0
0
0
0
0
0
0
0
0
0
0
0
0
0
0
0
0
0
0
0
0
0
0
0
0
0
0
0
0
0
0
3.79906e-35
1.55811e-30
3.96884e-30
4.56597e-29
7.2683e-28
2.01828e-26
5.20426e-25
8.79173e-24
7.85518e-23
3.63332e-22
1.06818e-21
2.35708e-21
4.88765e-21
1.04317e-20
1.02449e-20
6.57567e-21
7.24599e-21
1.87856e-20
7.21076e-20
6.53407e-19
3.12783e-17
3.55803e-12
5.45792e-07
3.75131e-08
1.3071e-07
3.79818e-07
3.53053e-07
3.25809e-07
2.90624e-07
2.14059e-07
1.7272e-07
1.63031e-07
1.38407e-07
1.21757e-07
8.72004e-08
6.93572e-08
5.3338e-08
4.68407e-08
3.88354e-08
4.08443e-08
3.91045e-08
3.38957e-08
2.82046e-08
3.22582e-08
8.48849e-08
1.12468e-07
4.40545e-09
1.91963e-10
1.61625e-11
8.11e-16
1.42161e-24
3.20744e-27
4.34182e-22
0
0
0
0
0
0
0
0
0
0
0
0
0
0
0
0
0
0
0
0
0
0
0
0
0
0
0
0
0
0
0
0
0
0
0
0
0
0
0
0
0
0
0
0
0
0
0
2.29003e-31
4.03888e-22
1.13299e-30
7.82881e-22
6.81615e-27
1.19235e-25
2.76197e-24
8.96014e-23
1.57166e-24
1.27308e-20
4.27863e-20
7.99684e-20
1.10929e-19
2.76329e-19
7.12478e-53
5.22379e-53
5.0864e-20
1.57648e-19
4.52972e-19
1.85183e-18
2.69863e-17
6.93385e-13
5.32594e-09
6.0344e-09
5.69756e-08
2.9707e-07
9.85286e-08
2.83348e-07
2.46518e-07
1.79506e-07
1.554e-07
1.57337e-07
1.37795e-07
1.21024e-07
8.40293e-08
6.74608e-08
5.26078e-08
4.4286e-08
3.93568e-08
3.86742e-08
3.71516e-08
3.55273e-08
2.9085e-08
3.2734e-08
7.18717e-08
1.37987e-07
1.09182e-10
4.91191e-11
3.50057e-14
5.42782e-16
6.39954e-19
1.85561e-20
3.00086e-25
0
0
0
0
0
0
0
0
0
0
0
0
0
0
0
0
0
0
0
0
0
0
0
0
0
0
0
0
0
0
0
0
0
0
0
0
0
0
0
0
0
0
0
0
0
0
0
3.61385e-35
3.12589e-29
2.35436e-27
4.23575e-26
3.17521e-25
1.21155e-24
1.14933e-23
2.70183e-22
9.57181e-21
7.32033e-53
5.14072e-17
8.09475e-18
7.82725e-18
9.51625e-53
1.64723e-19
1.04864e-19
2.65481e-19
3.35575e-18
3.57973e-49
2.83057e-15
1.86718e-14
2.53678e-47
2.90569e-11
1.16598e-09
1.64728e-08
1.20463e-07
2.15803e-07
2.30557e-07
1.90215e-07
5.16946e-07
1.47062e-07
1.5598e-07
1.37876e-07
1.19607e-07
7.90503e-08
6.10566e-08
5.06938e-08
4.37664e-08
3.63836e-08
3.93237e-08
3.46134e-08
3.32214e-08
2.74494e-08
3.13784e-08
6.8851e-08
1.26308e-07
2.71517e-09
2.43113e-12
1.45172e-14
2.34152e-17
2.17225e-19
1.14376e-20
1.35413e-26
0
0
0
0
0
0
0
0
0
0
0
0
0
0
0
0
0
0
0
0
0
0
0
0
0
0
0
0
0
0
0
0
0
0
0
0
0
0
0
0
0
0
0
0
0
0
0
6.03888e-33
6.12318e-29
9.02048e-22
1.7691e-24
1.59434e-22
2.3497e-23
6.41763e-23
1.02962e-23
1.95388e-20
1.03716e-52
2.42863e-20
3.77422e-20
1.92593e-51
2.20645e-18
3.19742e-19
7.48223e-53
2.01071e-18
6.091e-49
4.90966e-14
6.82379e-14
2.18164e-47
4.17483e-47
9.29775e-12
2.80512e-16
1.94152e-12
5.36945e-08
1.63794e-07
3.16768e-07
2.72315e-07
1.83135e-07
1.55077e-07
1.60448e-07
1.38289e-07
1.05219e-07
7.63956e-08
2.57475e-08
5.15808e-08
4.26036e-08
4.44772e-08
3.57038e-08
3.17269e-08
3.06965e-08
3.12922e-08
3.14144e-08
6.56287e-08
1.22122e-07
1.86981e-09
2.54508e-13
5.04521e-16
2.90669e-18
6.97214e-20
2.32876e-21
0
0
0
0
0
0
0
0
0
0
0
0
0
0
0
0
0
0
0
0
0
0
0
0
0
0
0
0
0
0
0
0
0
0
0
0
0
0
0
0
0
0
0
0
0
0
0
0
2.14454e-31
1.02579e-29
3.07536e-25
4.83352e-25
2.82195e-22
9.26726e-25
1.48354e-22
4.99259e-22
5.26128e-21
1.52064e-19
4.35242e-18
5.65711e-18
1.49621e-18
3.28777e-19
2.79646e-19
1.28567e-18
2.38845e-17
1.67129e-47
2.29877e-11
5.58673e-46
1.78227e-12
1.10937e-46
1.50853e-11
2.20306e-13
3.20092e-10
4.7788e-08
1.03031e-07
3.94681e-07
3.37392e-07
1.33287e-07
1.43224e-07
1.62139e-07
3.31561e-07
1.01919e-07
7.60827e-08
5.65621e-08
4.71231e-08
4.67169e-08
4.03706e-08
3.18332e-08
2.87478e-08
2.81682e-08
7.02607e-09
2.97215e-08
6.22953e-08
1.32944e-07
2.46632e-09
1.16893e-13
1.00593e-16
1.05806e-18
1.40598e-20
7.17185e-28
0
0
0
0
0
0
0
0
0
0
0
0
0
0
0
0
0
0
0
0
0
0
0
0
0
0
0
0
0
0
0
0
0
0
0
0
0
0
0
0
0
0
0
0
0
0
0
0
1.9836e-31
1.25231e-28
3.36863e-26
8.50131e-25
8.09226e-24
3.56611e-23
1.53671e-22
1.2985e-21
7.16942e-21
2.86195e-20
6.86464e-53
5.87941e-53
5.65963e-53
2.51281e-19
8.3649e-19
9.23493e-18
1.37112e-16
1.30052e-12
1.04239e-43
3.68296e-10
1.00924e-14
1.51004e-10
2.94258e-44
3.09116e-09
3.90532e-07
1.00205e-07
7.31747e-08
9.18841e-08
8.98909e-08
1.13894e-07
1.51189e-07
1.67843e-07
1.35195e-07
9.67508e-08
7.09135e-08
5.51032e-08
4.52465e-08
4.61526e-08
3.65967e-08
4.8704e-09
2.59351e-08
2.57338e-08
3.04785e-08
2.85796e-08
5.87542e-08
1.54701e-07
3.81603e-09
1.9688e-13
9.86902e-17
6.32486e-19
1.06827e-26
1.39202e-27
0
0
0
0
0
0
0
0
0
0
0
0
0
0
0
0
0
0
0
0
0
0
0
0
0
0
0
0
0
0
0
0
0
0
0
0
0
0
0
0
0
0
0
0
0
0
0
0
4.18055e-22
6.25026e-22
2.8326e-26
8.92872e-25
7.76117e-24
1.3454e-22
1.11769e-21
3.19242e-20
6.61612e-53
1.50013e-19
1.15951e-19
1.08263e-19
1.95883e-19
1.63109e-18
2.15956e-52
7.51891e-52
5.999e-48
2.94068e-46
1.95348e-08
1.36972e-11
1.4367e-09
1.45245e-09
1.87087e-17
7.12241e-09
5.40727e-08
2.2965e-11
3.7198e-08
4.98655e-08
8.29537e-08
1.45636e-07
1.80719e-07
1.51925e-07
1.17962e-07
8.84638e-08
6.5786e-08
5.20396e-08
4.83642e-08
4.1276e-08
3.32475e-08
2.61621e-08
2.33729e-08
2.32906e-08
2.90819e-08
2.93483e-08
5.50075e-08
1.80854e-07
5.17643e-09
1.09035e-14
1.18171e-16
3.48348e-27
4.5354e-30
7.72176e-28
0
0
0
0
0
0
0
0
0
0
0
0
0
0
0
0
0
0
0
0
0
0
0
0
0
0
0
0
0
0
0
0
0
0
0
0
0
0
0
0
0
0
0
0
0
0
0
0
4.83505e-22
1.08442e-21
3.0715e-25
1.96107e-23
1.16265e-22
4.88278e-22
2.13621e-24
5.19371e-19
6.57172e-52
2.55198e-18
9.79484e-53
8.87947e-53
1.3372e-18
6.70655e-18
4.03165e-17
1.10209e-48
1.50272e-18
1.02887e-45
1.27548e-07
1.99765e-08
7.89158e-09
4.19976e-11
9.27976e-09
2.31538e-10
7.99722e-10
3.34826e-08
3.48282e-08
5.502e-08
1.25128e-07
2.05966e-07
2.79571e-07
2.23193e-07
1.07617e-07
8.41303e-08
6.2817e-08
4.74804e-08
4.62694e-08
3.67527e-08
3.02953e-08
2.42788e-08
4.22142e-09
3.85804e-09
2.75999e-08
2.88296e-08
1.26674e-07
4.42195e-07
5.5273e-09
1.81722e-13
5.81448e-17
1.92057e-20
7.78233e-27
4.29511e-28
0
0
0
0
0
0
0
0
0
0
0
0
0
0
0
0
0
0
0
0
0
0
0
0
0
0
0
0
0
0
0
0
0
0
0
0
0
0
0
0
0
0
0
0
0
0
0
0
1.05971e-31
8.29695e-23
6.6147e-23
2.14173e-23
2.42161e-22
1.39236e-24
2.72839e-20
3.27738e-19
5.74507e-16
1.28951e-47
4.67976e-15
1.1458e-14
1.66191e-47
1.55337e-47
1.00319e-17
2.82917e-47
1.74333e-12
3.2761e-10
1.31635e-07
4.9811e-08
3.08525e-08
5.37015e-08
4.27417e-08
5.55037e-08
5.28799e-08
4.72256e-08
5.7958e-08
8.22637e-08
1.39231e-07
4.2417e-07
1.73923e-07
1.27347e-07
1.32987e-07
7.23035e-08
5.74011e-08
1.58531e-08
3.98963e-08
3.2535e-08
2.76753e-08
2.28515e-08
5.13319e-09
2.01256e-08
2.64707e-08
2.8777e-08
6.08524e-08
1.8727e-07
7.40918e-11
6.36149e-14
3.00229e-17
1.09025e-25
9.11848e-27
4.45465e-28
0
0
0
0
0
0
0
0
0
0
0
0
0
0
0
0
0
0
0
0
0
0
0
0
0
0
0
0
0
0
0
0
0
0
0
0
0
0
0
0
0
0
0
0
0
0
0
0
2.67664e-23
6.20336e-25
1.89942e-23
2.52444e-22
3.3903e-21
4.27619e-24
8.82367e-53
1.8258e-47
4.64057e-14
1.9551e-12
7.40462e-12
5.02157e-44
1.8591e-11
6.48489e-45
1.45019e-12
1.87381e-12
7.06012e-12
5.0426e-13
2.03556e-08
1.24593e-07
7.78617e-08
2.86512e-08
1.05846e-07
8.26759e-08
3.24559e-08
8.95541e-08
1.08262e-07
1.30897e-07
1.76675e-07
2.01668e-07
1.6312e-07
1.17362e-07
9.00447e-08
6.65203e-08
5.33318e-08
1.6223e-08
3.46965e-08
1.27663e-08
2.53324e-08
2.15689e-08
1.93443e-08
1.90506e-08
2.53714e-08
2.74851e-08
6.50931e-08
1.85658e-07
2.23409e-09
2.28869e-14
1.47886e-17
4.29963e-29
5.53128e-27
4.59248e-28
0
0
0
0
0
0
0
0
0
0
0
0
0
0
0
0
0
0
0
0
0
0
0
0
0
0
0
0
0
0
0
0
0
0
0
0
0
0
0
0
0
0
0
0
0
0
0
0
9.46105e-27
9.79174e-23
4.43692e-21
7.25392e-22
1.03093e-15
5.1061e-17
2.33103e-47
1.00342e-11
2.13936e-09
1.80393e-09
1.75953e-09
1.62266e-09
1.78369e-09
1.10326e-14
4.74772e-10
4.08141e-10
7.51742e-10
1.81793e-11
1.78974e-08
4.19871e-08
1.19129e-07
1.36467e-07
1.80595e-07
2.37133e-07
1.62864e-07
1.36625e-07
1.63844e-07
2.18968e-07
2.11408e-07
2.63979e-07
1.36119e-07
1.06103e-07
7.8501e-08
3.86845e-08
4.70062e-08
4.42673e-08
1.41402e-08
2.59623e-08
2.32148e-08
2.02306e-08
1.85931e-08
1.78952e-08
8.1746e-09
2.81645e-08
7.0669e-08
2.83149e-07
2.17375e-10
6.09444e-17
7.61707e-18
4.90594e-26
1.53006e-30
5.97162e-28
4.15317e-30
0
0
0
0
0
0
0
0
0
0
0
0
0
0
0
0
0
0
0
0
0
0
0
0
0
0
0
0
0
0
0
0
0
0
0
0
0
0
0
0
0
0
0
0
0
0
0
5.60694e-24
8.61657e-16
2.3022e-14
2.86263e-13
6.51866e-44
1.15179e-43
2.21678e-10
1.09727e-43
1.32736e-07
5.71207e-10
3.89231e-11
3.17031e-12
2.46541e-08
1.94883e-13
8.96214e-09
5.34911e-09
5.09327e-11
1.78366e-08
7.58336e-08
7.00671e-08
2.11771e-07
1.98462e-07
2.42428e-07
2.61736e-07
2.00603e-07
1.78629e-07
1.89541e-07
2.97359e-07
1.89001e-07
1.51427e-07
1.18758e-07
9.11214e-08
7.09511e-08
5.4168e-08
4.17392e-08
4.06277e-08
1.85063e-08
1.83239e-08
2.12609e-08
1.87821e-08
1.76993e-08
7.01922e-09
9.63727e-09
2.93494e-08
7.75602e-08
1.78384e-07
7.72828e-10
1.48917e-17
4.53278e-18
5.31426e-20
2.5795e-27
6.10515e-28
3.29654e-28
1.48125e-29
0
0
0
0
0
0
0
0
0
0
0
0
0
0
0
0
0
0
0
0
0
0
0
0
0
0
0
0
0
0
0
0
0
0
0
0
0
0
0
0
0
0
0
0
0
0
4.79892e-20
1.03092e-09
2.34167e-09
1.54835e-09
1.30293e-08
1.16441e-09
1.20853e-10
2.0867e-08
9.082e-08
1.10612e-07
1.12393e-07
9.76564e-08
8.74565e-08
7.13147e-08
5.12233e-08
3.18501e-08
3.26045e-08
1.64897e-08
1.43836e-07
1.69212e-07
3.88902e-07
2.72051e-07
2.63797e-07
2.61891e-07
2.61615e-07
2.21912e-07
3.05078e-07
2.14841e-07
1.81535e-07
1.28835e-07
1.04761e-07
8.0356e-08
3.59132e-08
4.98368e-08
3.70131e-08
3.37235e-08
2.90798e-08
2.7678e-08
1.95116e-08
1.73012e-08
1.67571e-08
1.66252e-08
2.19284e-08
2.97064e-08
1.00957e-07
8.28889e-08
4.13825e-10
7.07696e-16
2.55472e-18
3.76275e-20
1.66388e-27
6.32674e-28
4.97423e-28
3.68483e-28
8.84076e-30
0
0
0
0
0
0
0
0
0
0
0
0
0
0
0
0
0
0
0
0
0
0
0
0
0
0
0
0
0
0
0
0
0
0
0
0
0
0
0
0
0
0
0
0
0
1.17071e-17
1.76552e-07
4.84185e-07
2.21821e-07
1.38697e-07
1.62411e-07
9.72346e-08
7.34477e-08
2.16132e-07
2.66755e-07
2.41989e-07
2.35912e-07
1.84221e-07
1.86697e-07
1.67318e-07
1.03982e-07
7.23991e-08
8.22857e-08
1.67092e-07
3.03587e-07
4.14261e-07
3.30364e-07
2.65813e-07
2.61894e-07
2.53296e-07
3.64358e-07
2.25665e-07
1.89594e-07
1.51705e-07
6.6645e-08
5.51709e-08
4.19708e-08
3.42863e-08
3.94082e-08
4.56317e-08
4.84384e-08
2.03735e-08
1.59481e-08
3.14543e-08
1.4403e-08
1.79154e-08
1.61049e-08
1.53626e-08
5.54191e-08
1.11955e-07
1.29895e-08
1.86925e-10
2.48977e-16
1.59501e-18
1.16001e-26
1.39535e-27
6.23391e-28
5.34607e-28
4.45111e-28
2.6757e-28
0
0
0
0
0
0
0
0
0
0
0
0
0
0
0
0
0
0
0
0
0
0
0
0
0
0
0
0
0
0
0
0
0
0
0
0
0
0
0
0
0
0
0
0
0
1.39529e-08
3.01367e-07
3.78244e-07
9.53249e-08
3.68062e-07
3.63533e-07
2.08026e-07
2.75645e-07
3.5088e-07
3.46924e-07
2.3754e-07
1.52948e-07
2.97963e-07
2.99629e-07
2.39305e-07
1.61814e-07
1.22551e-07
1.22449e-07
2.10715e-07
3.29778e-07
2.74712e-07
2.57842e-07
2.63063e-07
2.65939e-07
3.38622e-07
2.09687e-07
1.91999e-07
1.57778e-07
1.27769e-07
9.71991e-08
5.54626e-08
6.12218e-08
4.75691e-08
3.52806e-08
2.74844e-08
6.95531e-08
7.29275e-08
1.40159e-08
4.62373e-08
3.13664e-08
1.05211e-08
1.40763e-08
2.14886e-08
3.47176e-08
1.43186e-07
1.9549e-08
6.11101e-11
8.19381e-17
8.53418e-19
1.03652e-26
1.17421e-27
5.39706e-28
4.78561e-28
4.64102e-28
4.55286e-28
0
0
0
0
0
0
0
0
0
0
0
0
0
0
0
0
0
0
0
0
0
0
0
0
0
0
0
0
0
0
0
0
0
0
0
0
0
0
0
0
0
0
0
0
0
1.20115e-08
1.83067e-07
2.92332e-07
3.11422e-07
2.72048e-07
3.71327e-07
2.8549e-07
3.01025e-07
3.76715e-07
6.55744e-08
1.82742e-07
1.36396e-08
6.85253e-08
2.65112e-07
2.80094e-07
2.23273e-07
1.8563e-07
1.77164e-07
2.53407e-07
2.56669e-07
2.38982e-07
2.34454e-07
2.42041e-07
3.40203e-07
2.29505e-07
1.74008e-07
1.87885e-07
1.32191e-07
1.03991e-07
8.44086e-08
6.12221e-08
4.84526e-08
3.52201e-08
2.74693e-08
9.54946e-08
1.07122e-07
1.06762e-07
1.03102e-08
8.48182e-09
4.24307e-08
3.02108e-08
1.18753e-08
3.43562e-08
3.94775e-08
3.60167e-07
1.55154e-09
2.61568e-12
3.04168e-17
4.17926e-19
8.48267e-27
7.35793e-28
5.72742e-29
2.77693e-30
1.28623e-29
1.70169e-31
0
0
0
0
0
0
0
0
0
0
0
0
0
0
0
0
0
0
0
0
0
0
0
0
0
0
0
0
0
0
0
0
0
0
0
0
0
0
0
0
0
0
0
0
0
8.47162e-08
2.26251e-07
1.73369e-07
1.99403e-07
1.95782e-07
5.16416e-07
2.31074e-07
2.32336e-07
3.00333e-07
1.97856e-07
1.29769e-07
2.37688e-08
2.6653e-08
1.36977e-07
1.80297e-07
1.99276e-07
3.96606e-07
1.97718e-07
3.92016e-07
2.26018e-07
2.09114e-07
4.68408e-07
2.07367e-07
1.86084e-07
1.75734e-07
1.55293e-07
1.36097e-07
1.08222e-07
8.71917e-08
6.69179e-08
4.99787e-08
8.73483e-08
9.72612e-08
2.15326e-08
1.37678e-07
1.373e-08
1.0755e-08
7.74984e-09
6.67755e-09
7.2349e-09
4.00131e-08
3.18207e-08
2.04672e-08
4.43326e-08
3.13162e-07
8.25497e-10
5.22693e-12
1.19745e-17
1.55958e-19
2.42611e-27
4.21579e-29
0
0
0
0
0
0
0
0
0
0
0
0
0
0
0
0
0
0
0
0
0
0
0
0
0
0
0
0
0
0
0
0
0
0
0
0
0
0
0
0
0
0
0
0
0
0
0
0
0
8.67072e-08
2.139e-07
2.193e-07
9.26218e-08
8.05717e-08
1.06325e-07
8.81374e-08
9.336e-08
1.28541e-07
1.056e-07
6.20236e-08
3.90462e-08
2.92626e-07
3.66109e-07
6.83403e-08
9.3752e-08
1.22427e-07
1.63113e-07
1.88401e-07
1.90397e-07
1.75735e-07
1.63871e-07
1.66024e-07
1.68117e-07
1.43218e-07
2.40307e-07
1.02154e-07
2.74218e-07
7.30057e-08
5.12509e-08
1.44882e-07
1.38718e-07
2.2466e-08
1.53438e-07
1.74765e-07
9.44336e-09
6.64869e-09
4.60651e-09
1.09084e-07
5.92148e-09
5.51964e-08
1.11137e-08
2.27606e-08
2.30086e-07
2.2558e-07
9.49697e-10
9.30603e-13
4.91804e-18
8.81874e-20
1.31394e-27
8.32012e-37
0
0
0
0
0
0
0
0
0
0
0
0
0
0
0
0
0
0
0
0
0
0
0
0
0
0
0
0
0
0
0
0
0
0
0
0
0
0
0
0
0
0
0
0
0
0
0
0
0
7.56504e-08
1.50632e-07
2.79679e-07
2.81572e-07
1.24777e-07
5.81604e-08
4.94673e-08
4.474e-08
4.70404e-08
4.04099e-08
3.45195e-08
2.8807e-08
2.36571e-08
2.0595e-08
4.46794e-08
3.63265e-08
5.05288e-08
9.56174e-08
1.33421e-07
5.67189e-07
1.3313e-07
5.72222e-07
1.2645e-07
1.27315e-07
1.21836e-07
9.03836e-08
7.65855e-08
6.66953e-08
5.30698e-08
2.33055e-07
1.98542e-07
2.42637e-08
1.95465e-07
1.95249e-07
9.78181e-09
6.97254e-09
2.03677e-07
3.04705e-09
1.26043e-07
5.07239e-09
6.8729e-09
6.96911e-08
2.51054e-08
6.75404e-08
1.21496e-07
2.9499e-10
5.17779e-16
2.17907e-18
1.91439e-20
1.08045e-27
3.58705e-30
0
0
0
0
0
0
0
0
0
0
0
0
0
0
0
0
0
0
0
0
0
0
0
0
0
0
0
0
0
0
0
0
0
0
0
0
0
0
0
0
0
0
0
0
0
0
0
0
0
7.18274e-08
9.77245e-08
1.5911e-07
2.50091e-07
2.95334e-07
2.2649e-07
1.85082e-07
1.50299e-07
1.11697e-07
9.51737e-08
7.47599e-08
5.31378e-08
3.65714e-08
2.35424e-08
1.64966e-08
1.36003e-08
3.3714e-08
4.53301e-07
7.43684e-08
8.27937e-08
5.90211e-07
8.8613e-08
8.85181e-08
8.97515e-08
8.73286e-08
7.40118e-08
5.06478e-07
4.91167e-08
3.75744e-08
2.91562e-07
2.60953e-08
1.91872e-08
1.44241e-08
1.09e-08
7.23628e-09
4.82208e-09
2.53497e-09
1.5854e-09
1.78417e-07
1.1591e-07
6.91611e-09
1.30478e-08
2.97421e-08
3.35698e-07
4.48705e-08
9.31994e-11
1.54524e-16
9.76998e-19
1.09667e-26
1.26573e-27
4.06633e-28
3.39261e-37
0
0
0
0
0
0
0
0
0
0
0
0
0
0
0
0
0
0
0
0
0
0
0
0
0
0
0
0
0
0
0
0
0
0
0
0
0
0
0
0
0
0
0
0
0
0
0
0
7.31565e-08
8.54942e-08
1.00315e-07
1.38858e-07
2.18544e-07
2.73903e-07
2.75079e-07
2.53176e-07
2.02312e-07
1.43908e-07
9.48393e-08
6.32556e-08
4.06505e-08
2.54512e-08
1.56611e-08
1.13614e-08
1.42579e-08
2.76886e-08
3.56898e-08
5.51988e-07
5.79823e-07
6.12563e-08
6.26156e-08
6.03245e-07
6.03674e-07
5.03438e-08
4.49879e-08
3.90156e-08
2.8342e-08
3.59211e-07
3.25641e-07
1.59903e-08
1.20718e-08
9.2387e-09
2.62235e-07
3.61266e-09
1.02214e-09
2.61142e-07
2.42713e-07
2.97296e-09
6.1471e-09
1.33027e-08
3.60228e-08
1.02835e-07
2.41411e-08
3.30087e-11
4.95994e-17
4.34285e-19
9.35157e-27
1.90846e-27
5.165e-28
3.40643e-28
0
0
0
0
0
0
0
0
0
0
0
0
0
0
0
0
0
0
0
0
0
0
0
0
0
0
0
0
0
0
0
0
0
0
0
0
0
0
0
0
0
0
0
0
0
0
0
0
7.76135e-08
8.92096e-08
9.60735e-08
1.02695e-07
1.28723e-07
1.71058e-07
1.79236e-07
1.58061e-07
1.16978e-07
7.93919e-08
5.61418e-08
3.88489e-08
2.73116e-08
1.89878e-08
1.31087e-08
9.19694e-09
8.47864e-09
2.01501e-08
2.34573e-08
2.66909e-08
3.34775e-08
4.08515e-08
4.63536e-08
4.679e-08
4.35966e-08
3.43895e-08
5.72006e-07
2.81305e-08
2.43402e-08
2.09875e-08
1.83462e-08
3.32006e-07
3.2077e-07
7.05546e-09
4.26546e-09
2.16164e-09
8.74116e-10
1.96502e-10
7.74853e-10
2.68823e-09
6.1645e-09
1.51092e-08
4.93026e-08
1.07113e-07
9.72371e-09
1.18596e-11
1.83397e-17
1.35223e-19
7.20373e-27
1.08274e-27
5.10337e-28
3.67106e-28
0
0
0
0
0
0
0
0
0
0
0
0
0
0
0
0
0
0
0
0
0
0
0
0
0
0
0
0
0
0
0
0
0
0
0
0
0
0
0
0
0
0
0
0
0
0
0
0
8.47472e-08
1.00112e-07
1.06329e-07
1.03481e-07
9.69087e-08
8.58862e-08
7.26412e-08
5.29363e-08
4.32963e-08
3.14886e-08
2.36321e-08
1.83319e-08
1.43242e-08
1.12318e-08
8.75861e-09
7.03285e-09
6.46874e-09
7.8508e-09
3.52786e-08
1.92616e-08
4.73536e-07
2.68925e-08
3.23176e-08
3.4044e-08
3.10587e-08
2.48715e-08
2.17323e-08
2.07936e-08
1.93134e-08
1.77201e-08
1.54098e-08
3.34024e-07
8.79755e-09
5.9253e-09
3.11302e-09
9.75749e-10
2.35286e-07
8.80309e-10
4.0961e-10
2.46356e-09
6.51633e-09
1.99779e-07
5.89223e-08
9.34232e-08
3.32054e-09
4.17084e-12
7.84556e-18
3.99452e-20
3.42216e-27
7.79247e-28
4.89504e-28
1.00979e-28
0
0
0
0
0
0
0
0
0
0
0
0
0
0
0
0
0
0
0
0
0
0
0
0
0
0
0
0
0
0
0
0
0
0
0
0
0
0
0
0
0
0
0
0
0
0
0
0
9.48738e-08
1.13096e-07
1.15327e-07
9.68115e-08
6.87372e-08
4.33406e-08
2.62938e-08
2.03553e-08
1.52638e-08
1.20853e-08
9.27934e-09
7.4655e-09
6.25772e-09
5.54738e-09
5.12804e-09
4.85578e-09
4.87694e-09
5.95289e-09
1.08243e-08
1.97106e-08
1.59249e-08
1.8674e-08
2.0277e-08
2.30987e-08
2.22379e-08
5.35892e-07
4.96982e-07
1.57201e-08
1.5554e-08
1.46742e-08
1.28745e-08
1.03803e-08
7.15312e-09
4.07797e-09
1.60409e-09
2.64023e-10
3.55916e-10
8.06814e-10
1.40241e-09
2.31411e-09
7.30381e-09
2.04004e-08
7.86339e-08
1.07534e-07
9.18256e-10
1.23059e-12
3.75251e-18
2.03603e-26
2.0154e-27
6.35536e-28
2.63278e-28
0
0
0
0
0
0
0
0
0
0
0
0
0
0
0
0
0
0
0
0
0
0
0
0
0
0
0
0
0
0
0
0
0
0
0
0
0
0
0
0
0
0
0
0
0
0
0
0
0
1.07656e-07
1.16783e-07
9.95065e-08
7.51657e-08
4.53073e-08
2.20159e-08
1.1785e-08
8.55962e-09
6.38537e-09
4.5564e-09
3.43096e-09
2.70314e-09
2.26577e-09
2.20161e-09
2.53556e-09
3.14688e-09
3.61641e-09
4.73682e-09
6.75303e-09
1.08227e-08
1.42341e-08
1.33866e-08
4.64806e-07
1.58214e-08
1.59295e-08
1.50818e-08
1.39133e-08
1.23957e-08
1.24743e-08
1.17655e-08
1.03281e-08
8.32491e-09
5.31871e-09
2.13693e-07
2.77844e-07
3.21297e-11
4.71947e-10
8.66373e-10
1.34356e-09
2.33662e-09
8.48153e-09
2.69016e-08
8.43281e-08
4.34528e-08
2.19545e-10
1.01094e-13
1.9409e-18
1.21327e-26
1.41186e-27
5.26942e-28
2.02186e-28
0
0
0
0
0
0
0
0
0
0
0
0
0
0
0
0
0
0
0
0
0
0
0
0
0
0
0
0
0
0
0
0
0
0
0
0
0
0
0
0
0
0
0
0
0
0
0
0
0
1.17921e-07
9.30413e-08
6.71328e-08
4.72331e-08
2.6041e-08
1.01069e-08
6.03922e-09
4.18043e-09
2.66367e-09
1.79127e-09
1.29946e-09
9.13734e-10
6.10611e-10
6.878e-10
1.21138e-09
1.97256e-09
2.6906e-09
3.64523e-09
5.31204e-09
7.80342e-09
1.47547e-08
1.09069e-08
9.09201e-09
1.09563e-08
3.71612e-07
1.21771e-08
1.17304e-08
2.96938e-07
9.93549e-09
9.16919e-09
7.83342e-09
6.05975e-09
3.48408e-09
1.37261e-09
4.28189e-11
9.52324e-11
7.05161e-10
9.59367e-10
1.35901e-09
3.55894e-09
1.10961e-08
3.22451e-08
7.8614e-08
9.57559e-09
7.16458e-11
1.00681e-16
9.25729e-19
7.34773e-27
1.04924e-27
3.7764e-28
0
0
0
0
0
0
0
0
0
0
0
0
0
0
0
0
0
0
0
0
0
0
0
0
0
0
0
0
0
0
0
0
0
0
0
0
0
0
0
0
0
0
0
0
0
0
0
0
0
0
1.02248e-07
5.36844e-08
3.52975e-08
2.19996e-08
1.04915e-08
4.53166e-09
3.41945e-09
2.15577e-09
1.17803e-09
7.86031e-10
5.3862e-10
2.88068e-10
1.5882e-10
2.88548e-10
6.03096e-10
1.20308e-09
2.00769e-09
2.82971e-09
4.28134e-09
6.74156e-09
2.4205e-09
1.29254e-08
9.90155e-09
9.634e-09
2.57366e-07
1.01215e-08
9.45868e-09
8.17616e-09
7.79909e-09
6.90567e-09
5.43163e-09
3.88721e-09
1.92005e-09
5.56827e-10
2.68379e-11
3.4832e-10
9.20218e-10
1.0459e-09
1.40785e-09
4.39472e-09
3.28555e-07
4.35477e-08
6.36207e-08
1.08996e-08
2.22825e-11
3.3936e-17
4.08454e-19
4.46101e-27
7.72646e-28
3.08533e-28
0
0
0
0
0
0
0
0
0
0
0
0
0
0
0
0
0
0
0
0
0
0
0
0
0
0
0
0
0
0
0
0
0
0
0
0
0
0
0
0
0
0
0
0
0
0
0
0
0
0
6.25469e-08
1.9289e-08
9.86009e-09
5.99258e-09
3.75418e-09
3.09619e-09
2.10768e-09
1.20833e-09
6.10748e-10
3.80903e-10
2.52932e-10
8.11148e-11
7.02557e-11
1.3477e-10
3.06101e-10
7.12014e-10
1.43165e-09
2.2422e-09
3.32604e-09
5.2605e-09
1.05598e-08
1.78747e-08
1.31146e-08
9.89294e-09
9.35465e-09
8.52854e-09
1.48836e-07
6.61645e-09
6.02168e-09
4.98094e-09
3.36173e-09
2.08794e-09
6.87768e-10
2.42819e-10
2.43238e-10
6.1447e-10
1.06854e-09
1.03752e-09
1.60608e-09
5.91471e-09
1.77198e-08
5.2052e-08
4.4596e-08
3.67394e-09
6.17791e-12
1.20252e-17
1.4618e-19
2.68719e-27
5.95956e-28
1.43721e-28
0
0
0
0
0
0
0
0
0
0
0
0
0
0
0
0
0
0
0
0
0
0
0
0
0
0
0
0
0
0
0
0
0
0
0
0
0
0
0
0
0
0
0
0
0
0
0
0
0
0
2.59718e-08
4.50943e-09
3.78995e-09
3.40574e-09
2.67936e-09
1.80229e-09
1.10415e-09
6.48789e-10
3.00096e-10
2.13536e-10
1.3956e-10
2.36596e-11
3.62848e-11
6.98715e-11
1.62566e-10
4.13385e-10
9.56018e-10
1.75114e-09
2.61626e-09
3.93545e-09
6.0805e-09
1.77774e-08
2.08162e-08
1.10904e-08
8.8988e-09
4.64785e-08
6.16198e-08
5.50644e-09
4.62132e-09
3.50461e-09
2.6796e-08
7.73736e-10
6.50834e-11
1.74464e-10
4.0245e-10
7.29542e-10
1.13527e-09
9.22152e-10
2.26418e-09
8.99843e-09
2.54741e-08
5.60815e-08
2.56074e-08
6.96062e-10
1.24982e-12
4.76746e-18
1.88993e-20
1.8647e-27
4.17718e-28
1.07876e-29
5.94373e-32
0
0
0
0
0
0
0
0
0
0
0
0
0
0
0
0
0
0
0
0
0
0
0
0
0
0
0
0
0
0
0
0
0
0
0
0
0
0
0
0
0
0
0
0
0
0
0
0
0
9.61383e-10
7.58365e-10
7.15808e-10
7.15631e-10
6.54137e-10
5.22515e-10
3.74056e-10
2.42566e-10
1.18023e-10
1.10349e-10
7.75063e-11
1.16519e-11
1.89056e-11
3.56984e-11
8.00072e-11
2.00657e-10
5.00538e-10
1.09168e-09
1.82313e-09
2.49722e-09
3.29918e-09
5.10292e-09
1.58586e-08
2.03372e-08
1.02432e-08
7.94249e-09
6.34512e-09
4.85297e-09
3.38797e-09
1.88736e-09
5.23375e-10
3.84142e-12
5.62198e-11
1.80561e-10
4.37956e-10
8.2052e-10
1.22247e-09
6.97313e-10
4.1516e-09
1.42876e-08
3.47388e-08
4.44742e-08
7.2946e-09
5.40108e-11
1.02158e-16
9.32999e-19
6.65569e-27
8.36436e-28
4.55769e-32
0
0
0
0
0
0
0
0
0
0
0
0
0
0
0
0
0
0
0
0
0
0
0
0
0
0
0
0
0
0
0
0
0
0
0
0
0
0
0
0
0
0
0
0
0
0
0
0
0
0
0
6.82349e-11
5.75351e-11
5.24161e-11
5.11464e-11
6.59377e-11
8.08494e-11
8.11952e-11
6.15526e-11
5.41036e-11
5.98467e-11
5.20343e-11
2.42715e-11
9.3639e-12
1.80698e-11
3.90163e-11
9.2265e-11
2.22937e-10
4.893e-10
9.0179e-10
1.30687e-09
1.60334e-09
1.99101e-09
3.21379e-09
6.62727e-09
1.10821e-08
1.19919e-08
9.32212e-09
3.3106e-09
7.04564e-10
3.51877e-10
2.721e-10
6.14541e-11
2.04746e-12
6.13393e-11
2.97323e-10
7.54482e-10
9.85737e-10
1.14769e-09
8.93028e-09
2.22183e-08
3.53784e-08
1.36151e-08
7.85444e-10
4.20253e-12
9.79725e-18
1.70668e-19
2.19318e-27
9.34382e-29
0
0
0
0
0
0
0
0
0
0
0
0
0
0
0
0
0
0
0
0
0
0
0
0
0
0
0
0
0
0
0
0
0
0
0
0
0
0
0
0
0
0
0
0
0
0
0
0
0
0
0
0
4.97893e-12
7.32884e-12
4.78098e-12
5.1779e-12
7.62104e-12
1.36253e-11
2.11079e-11
2.24136e-11
3.10977e-11
3.76824e-11
3.6634e-11
2.41223e-11
4.89589e-12
9.3642e-12
1.95286e-11
4.31072e-11
9.63221e-11
2.01731e-10
3.63975e-10
5.54011e-10
6.81581e-10
7.85664e-10
9.87113e-10
1.49329e-09
2.33667e-09
3.59036e-09
3.98554e-09
1.39714e-09
4.68666e-10
6.73402e-11
2.21728e-11
5.22211e-11
1.22205e-11
2.70788e-11
2.14822e-10
6.42994e-10
2.55532e-10
3.58459e-09
1.36341e-08
2.39003e-08
2.17171e-08
4.46064e-09
8.96676e-11
1.92314e-16
1.50504e-18
1.03002e-20
1.01123e-27
8.14218e-38
0
0
0
0
0
0
0
0
0
0
0
0
0
0
0
0
0
0
0
0
0
0
0
0
0
0
0
0
0
0
0
0
0
0
0
0
0
0
0
0
0
0
0
0
0
0
0
0
0
0
0
0
6.42374e-13
1.48414e-12
1.83578e-12
2.61776e-12
5.87137e-12
1.21254e-11
1.90053e-11
1.92383e-11
2.17416e-11
2.57566e-11
2.43881e-11
1.5539e-11
2.73017e-12
4.80953e-12
9.69209e-12
1.98086e-11
4.05305e-11
7.7967e-11
1.34082e-10
2.00596e-10
2.54656e-10
2.98757e-10
3.2154e-10
3.94285e-10
5.05368e-10
7.76426e-10
8.22578e-10
6.11362e-10
4.03104e-10
1.43159e-10
4.63342e-11
1.65234e-11
1.25629e-11
1.88698e-11
1.8158e-10
4.4565e-10
4.16325e-10
6.47296e-09
1.48095e-08
1.61004e-08
6.36608e-09
4.93043e-10
5.85396e-12
1.33176e-17
2.30802e-19
3.0564e-27
4.34731e-28
0
0
0
0
0
0
0
0
0
0
0
0
0
0
0
0
0
0
0
0
0
0
0
0
0
0
0
0
0
0
0
0
0
0
0
0
0
0
0
0
0
0
0
0
0
0
0
0
0
0
0
0
0
0
7.76644e-13
2.34171e-12
6.0805e-12
1.27187e-11
2.198e-11
3.14193e-11
3.21367e-11
1.73576e-11
1.83501e-11
1.47187e-11
5.02352e-12
1.55284e-12
2.58404e-12
4.74733e-12
9.25726e-12
1.73451e-11
3.07951e-11
5.04185e-11
7.44521e-11
9.98197e-11
1.1897e-10
1.34856e-10
1.49613e-10
1.81065e-10
2.25517e-10
2.54988e-10
2.55827e-10
2.05447e-10
8.00632e-11
2.44414e-11
1.11383e-11
7.41212e-12
1.85025e-11
1.55569e-10
7.76074e-12
2.36024e-09
7.73368e-09
1.12814e-08
5.33957e-09
5.53376e-10
2.67627e-11
1.45675e-16
1.35169e-18
9.84549e-21
1.12852e-27
1.0953e-31
0
0
0
0
0
0
0
0
0
0
0
0
0
0
0
0
0
0
0
0
0
0
0
0
0
0
0
0
0
0
0
0
0
0
0
0
0
0
0
0
0
0
0
0
0
0
0
0
0
0
0
0
0
0
3.1104e-13
5.7138e-12
1.46558e-11
2.90793e-11
4.1727e-11
4.37711e-11
4.34081e-11
1.81256e-11
1.27542e-11
7.13273e-12
7.02059e-13
1.12336e-12
1.8097e-12
3.00837e-12
5.25294e-12
8.72748e-12
1.39139e-11
2.0986e-11
2.90699e-11
3.75613e-11
4.48011e-11
4.87162e-11
5.31369e-11
5.47898e-11
6.44743e-11
6.19503e-11
7.42206e-11
8.04313e-11
4.24064e-11
1.15265e-11
2.16604e-11
8.03144e-14
2.45076e-11
6.85319e-11
7.02259e-10
3.57408e-09
5.88071e-09
5.55963e-09
4.83235e-10
2.53495e-11
7.45274e-16
5.82993e-18
1.06691e-19
2.20349e-27
1.0071e-28
0
0
0
0
0
0
0
0
0
0
0
0
0
0
0
0
0
0
0
0
0
0
0
0
0
0
0
0
0
0
0
0
0
0
0
0
0
0
0
0
0
0
0
0
0
0
0
0
0
0
0
0
0
0
0
2.66299e-13
6.92908e-12
1.91613e-11
3.73059e-11
4.92944e-11
5.1431e-11
3.53495e-11
1.74712e-11
7.84948e-12
1.98875e-12
5.79347e-13
8.1827e-13
1.13289e-12
1.56255e-12
2.16274e-12
2.87077e-12
3.59077e-12
4.46817e-12
5.51916e-12
6.74225e-12
7.9638e-12
8.51493e-12
7.81689e-12
4.84416e-12
7.01957e-12
9.47909e-12
1.87266e-11
3.96632e-11
2.57036e-11
5.89206e-12
2.59374e-11
2.60922e-11
1.44747e-10
4.75634e-10
1.68088e-09
3.02227e-09
2.29273e-09
9.86653e-10
2.26766e-11
1.03594e-15
1.74969e-17
3.37899e-19
5.18784e-27
8.94623e-28
0
0
0
0
0
0
0
0
0
0
0
0
0
0
0
0
0
0
0
0
0
0
0
0
0
0
0
0
0
0
0
0
0
0
0
0
0
0
0
0
0
0
0
0
0
0
0
0
0
0
0
0
0
0
0
0
0
1.59599e-12
1.67172e-12
3.64632e-12
5.839e-12
7.31046e-12
7.62e-12
6.41974e-12
4.28031e-12
2.79519e-13
3.80368e-13
4.18293e-13
3.62525e-13
7.91959e-14
1.46182e-15
5.43169e-15
1.85687e-14
5.78172e-14
1.57479e-13
4.02031e-13
8.82134e-13
1.72271e-12
2.68219e-12
3.46439e-12
5.0644e-12
7.02781e-12
1.22069e-11
4.19902e-11
2.79157e-12
9.3808e-11
1.60659e-10
3.25525e-10
6.18985e-10
9.96227e-10
1.62104e-09
1.40402e-09
2.40526e-10
6.36068e-11
1.12259e-15
2.2834e-17
6.21121e-19
1.19253e-26
1.65259e-27
3.51474e-28
0
0
0
0
0
0
0
0
0
0
0
0
0
0
0
0
0
0
0
0
0
0
0
0
0
0
0
0
0
0
0
0
0
0
0
0
0
0
0
0
0
0
0
0
0
0
0
0
0
0
0
0
0
0
0
0
0
0
1.15565e-15
4.28041e-14
3.75868e-14
7.70397e-14
7.60746e-14
9.93179e-13
1.38288e-12
1.5216e-13
1.69123e-13
6.08858e-14
6.17484e-17
2.65054e-16
1.06997e-15
4.03284e-15
1.42919e-14
4.46547e-14
1.2839e-13
3.26931e-13
7.47944e-13
1.45236e-12
2.20433e-12
2.67837e-12
3.8663e-12
5.82684e-12
4.35125e-11
3.79167e-12
1.62596e-10
2.00724e-10
2.53999e-10
4.34498e-10
6.76304e-10
8.69409e-10
8.64978e-10
2.32043e-10
1.98313e-11
9.38405e-13
3.1406e-17
7.54979e-19
2.05475e-26
2.30954e-27
6.77158e-28
0
0
0
0
0
0
0
0
0
0
0
0
0
0
0
0
0
0
0
0
0
0
0
0
0
0
0
0
0
0
0
0
0
0
0
0
0
0
0
0
0
0
0
0
0
0
0
0
0
0
0
0
0
0
0
0
0
0
0
8.07692e-14
1.16249e-14
1.81493e-14
2.8619e-13
9.27225e-13
6.97105e-13
2.84469e-13
6.21545e-14
3.31673e-14
9.69856e-18
3.8058e-17
1.78091e-16
7.6386e-16
3.1031e-15
1.12281e-14
3.63241e-14
1.09645e-13
2.83414e-13
6.69148e-13
1.27256e-12
1.9288e-12
2.20875e-12
9.45332e-12
8.32897e-11
5.81207e-13
2.24428e-10
1.55531e-10
1.40055e-10
2.13125e-10
2.85441e-10
3.91084e-10
3.89747e-10
2.56908e-10
3.16209e-11
1.79528e-15
8.30416e-17
1.23562e-18
2.75573e-26
3.14408e-27
7.84844e-28
4.24744e-32
0
0
0
0
0
0
0
0
0
0
0
0
0
0
0
0
0
0
0
0
0
0
0
0
0
0
0
0
0
0
0
0
0
0
0
0
0
0
0
0
0
0
0
0
0
0
0
0
0
0
0
0
0
0
0
0
0
0
0
0
1.16697e-13
6.16318e-14
2.34874e-13
1.39872e-12
7.30954e-13
9.42345e-15
1.73614e-14
1.44034e-18
5.31043e-18
2.20378e-17
1.13239e-16
5.25019e-16
2.22164e-15
8.45762e-15
2.94902e-14
8.90399e-14
2.42711e-13
5.65583e-13
1.10716e-12
4.25481e-12
1.46742e-11
4.01474e-11
1.00083e-10
1.13904e-10
8.97721e-11
8.67326e-11
1.0206e-10
1.0545e-10
7.75468e-11
9.88714e-11
8.49139e-11
4.69743e-11
1.89211e-12
5.78954e-17
2.31762e-18
4.3029e-26
3.90094e-27
9.68828e-28
1.69559e-31
0
0
0
0
0
0
0
0
0
0
0
0
0
0
0
0
0
0
0
0
0
0
0
0
0
0
0
0
0
0
0
0
0
0
0
0
0
0
0
0
0
0
0
0
0
0
0
0
0
0
0
0
0
0
0
0
0
0
0
0
0
0
4.52522e-13
3.15281e-13
9.27706e-13
6.82564e-13
5.89523e-15
2.05113e-15
6.28032e-19
2.71441e-18
1.21885e-17
6.45203e-17
3.22785e-16
1.43907e-15
5.91043e-15
2.08276e-14
6.54298e-14
1.78463e-13
4.2591e-13
6.2718e-12
1.62127e-11
2.45852e-11
3.64328e-11
4.862e-11
4.78424e-11
5.30831e-11
5.65131e-11
5.42225e-11
4.36496e-11
1.61343e-11
1.14459e-11
1.11265e-11
3.60531e-12
1.37056e-16
2.91648e-18
4.48166e-20
5.48009e-27
1.32435e-27
9.61783e-29
0
0
0
0
0
0
0
0
0
0
0
0
0
0
0
0
0
0
0
0
0
0
0
0
0
0
0
0
0
0
0
0
0
0
0
0
0
0
0
0
0
0
0
0
0
0
0
0
0
0
0
0
0
0
0
0
0
0
0
0
0
0
0
0
0
7.87158e-13
5.06121e-13
3.20055e-15
5.24157e-20
2.21999e-19
1.23021e-18
6.0125e-18
3.18562e-17
1.73604e-16
8.16519e-16
3.41007e-15
1.27084e-14
3.95204e-14
1.09857e-13