/*--------------------------------*- C++ -*----------------------------------*\
  =========                 |
  \\      /  F ield         | OpenFOAM: The Open Source CFD Toolbox
   \\    /   O peration     | Website:  https://openfoam.org
    \\  /    A nd           | Version:  6
     \\/     M anipulation  |
\*---------------------------------------------------------------------------*/
FoamFile
{
    version     2.0;
    format      ascii;
    class       volScalarField;
    location    "0.005";
    object      T;
}
// * * * * * * * * * * * * * * * * * * * * * * * * * * * * * * * * * * * * * //

dimensions      [0 0 0 1 0 0 0];

internalField   nonuniform List<scalar> 
8000
(
300.041
300.041
300.041
300.041
300.042
300.053
300.141
300.399
300.681
300.935
301.178
301.411
301.643
301.813
301.832
301.822
302.001
302.508
303.5
306.876
323.42
423.609
785.247
842.206
1145.6
1436.54
1530.66
1585.53
1637.77
1680.74
1713.7
1726.11
1708.16
1656.9
1597.71
1547.63
1502.31
1465.37
1435.32
1415.78
1400.12
1404.3
1436.98
1502.69
1646.54
1640.34
1229.54
1013.65
778.426
477.461
339.736
308.988
300.606
300.038
300
300
300
300
300
300
300
300
300
300
300
300
300
300
300
300
300
300
300
300
300
300
300
300
300
300
300
300
300
300
300
300
300
300
300
300
300
300
300
300
300
300
300
300
300
300
300.041
300.041
300.041
300.042
300.043
300.066
300.245
300.645
301.06
301.465
301.814
302.076
302.325
302.594
302.558
302.359
302.443
302.968
303.996
307.482
325.661
491.284
1592.44
1131.15
1202.07
1451.34
1536.84
1592.79
1640.52
1683.28
1715.22
1727.52
1708.28
1654.19
1591.98
1538.76
1498.1
1459.08
1432.71
1405.39
1392.32
1402.11
1435.19
1500.86
1642.44
1655.31
1217.43
956.476
705.45
428.06
332.646
312.215
300.696
300.04
300
300
300
300
300
300
300
300
300
300
300
300
300
300
300
300
300
300
300
300
300
300
300
300
300
300
300
300
300
300
300
300
300
300
300
300
300
300
300
300
300
300
300
300
300
300
300.042
298.87
300.043
300.6
300.05
300.12
300.47
301.089
310.164
302.743
303.359
303.713
303.905
304.598
329.622
322.205
303.379
304.308
305.693
309.007
322.027
394.185
864.449
780.843
1008.46
1428.14
1361.29
1585.58
1644.28
1683.52
1716.05
1729.17
1706.85
1647.44
1579.08
1524.5
1485.9
1452.55
1423.94
1400.11
1387.38
1391.86
1427.97
1493.88
1634.92
1674.91
1064.13
853.102
418.133
397.185
327.728
307.164
300.414
300.028
300
300
300
300
300
300
300
300
300
300
300
300
300
300
300
300
300
300
300
300
300
300
300
300
300
300
300
300
300
300
300
300
300
300
300
300
300
300
300
300
300
300
300
300
300
300
300.041
300.042
300.045
300.071
300.158
300.311
300.707
301.45
302.772
329.336
309.69
310.475
309.986
336.548
304.134
303.792
304.589
308.963
352.198
314.14
325.656
414.418
543.085
632.362
869.875
1244.5
1488.54
1601.76
1658.51
1497.42
1718.84
1727.69
1700.69
1636.51
1559.59
1504.72
1470.15
1440.01
1417
1387.12
1381.07
1385.53
1422.42
1488.71
1626.63
1666.85
1113.1
720.306
495.23
364.847
320.532
303.344
300.253
300.021
300
300
300
300
300
300
300
300
300
300
300
300
300
300
300
300
300
300
300
300
300
300
300
300
300
300
300
300
300
300
300
300
300
300
300
300
300
300
300
300
300
300
300
300
300
300
300.041
300.042
302.351
300.271
305.209
300.708
300.963
305.14
303.223
338.787
499.212
462.777
397.599
308.136
304.953
330.715
307.653
364.554
322.74
326.925
391.911
419.578
466.912
629.997
808.298
1153.54
1462.35
1597.43
1658.46
1686.06
1712.45
1719.84
1688.71
1622.88
1535.91
1337.9
1449.66
1427.24
1395.21
1378.79
1374.1
1378.77
1406.56
1479.22
1617.35
1664.62
1066.06
634.587
430.877
341.498
314.651
302.241
300.259
300.025
300
300
300
300
300
300
300
300
300
300
300
300
300
300
300
300
300
300
300
300
300
300
300
300
300
300
300
300
300
300
300
300
300
300
300
300
300
300
300
300
300
300
300
300
300
300
300.041
300.043
300.143
301.747
301.285
303.636
301.193
301.612
302.558
304.696
310.051
310.411
307.342
305.097
304.927
307.127
315.367
394.917
366.409
437.67
373.674
447.832
473.642
659.147
990.761
1154.86
1354.72
1452.65
1439.86
1631.74
1691.25
1706.94
1529.59
1607.63
1528.31
1473.37
1441.4
1410.93
1387.7
1370.1
1367.25
1372.45
1283.83
1472.87
1606.66
1673.82
1069.68
598.484
398.284
331.472
314.42
304.416
300.407
300.042
300
300
300
300
300
300
300
300
300
300
300
300
300
300
300
300
300
300
300
300
300
300
300
300
300
300
300
300
300
300
300
300
300
300
300
300
300
300
300
300
300
300
300
300
300
300
300.041
300.042
300.068
300.253
300.595
300.859
305.438
301.919
302.584
303.246
321.043
326.549
324.357
304.914
306.671
312.409
324.498
364.243
600.734
438.832
520.752
441.773
554.308
750.991
1537.08
1312.42
1282.6
1390.24
1484.85
1597.01
1675.84
1690.73
1653.14
1590.17
1518.6
1463.39
1429.46
1397.65
1382.41
1260.05
1361.37
1366.96
1391.52
1469.29
1594.05
1689.12
1096.1
590.299
380.702
323.424
314.504
308.789
300.696
300.067
300
300
300
300
300
300
300
300
300
300
300
300
300
300
300
300
300
300
300
300
300
300
300
300
300
300
300
300
300
300
300
300
300
300
300
300
300
300
300
300
300
300
300
300
300
300
299.197
300.019
300.072
300.312
300.625
304.204
301.871
303.282
328.725
304.284
304.087
304.158
304.787
308.273
352.024
374.374
428.554
530.33
727.815
739.082
530.575
537.283
636.466
769.722
1144.81
1142.39
1159.99
1292.25
1464.46
1612.8
1666.56
1665.79
1626
1568.88
1499.97
1448.56
1412.08
1391.66
1379.85
1362.51
1357.32
1361.48
1390.23
1463.71
1579.14
1702.66
1117.75
413.411
362.74
300.047
300.254
305.341
300.554
300.087
300
300
300
300
300
300
300
300
300
300
300
300
300
300
300
300
300
300
300
300
300
300
300
300
300
300
300
300
300
300
300
300
300
300
300
300
300
300
300
300
300
300
300
300
300
300
299.091
300.751
300.171
300.838
302.837
301.651
309.292
306.153
374.03
308.739
336.412
333.223
308.109
313.074
320.435
391.143
449.056
606.129
1487.11
838.111
675.57
755.124
681.629
915.578
1124.68
1038.1
1122.84
1295.11
1530.33
1654.88
1544.98
1525.83
1592.97
1538.36
1475.52
1432.1
1396.97
1387.86
1380.08
1364.61
1253.61
1256.07
1388.55
1463.2
1445.05
1576.1
1100.82
564.96
357.918
312.655
313.403
303.583
300.555
300.144
300.03
300
300
300
300
300
300
300
300
300
300
300
300
300
300
300
300
300
300
300
300
300
300
300
300
300
300
300
300
300
300
300
300
300
300
300
300
300
300
300
300
300
300
300
300
300
300.043
299.924
300.995
303.126
301.472
308.086
303.429
305.854
310.737
347.495
313.025
317.347
360.777
384.558
455.012
423.632
382.233
579.847
1213.13
956.177
853.383
911.761
885.664
968.071
1020.12
1065.68
1182.5
1352.26
1546.78
1488.16
1652.63
1610.06
1437.88
1517.18
1456.58
1289.44
1389.45
1386.27
1382.95
1370.31
1257.26
1360.01
1388.83
1464.83
1596.49
1691.94
822.858
534.234
348.404
310.872
312.697
303.658
300.767
300.282
300.078
300
300
300
300
300
300
300
300
300
300
300
300
300
300
300
300
300
300
300
300
300
300
300
300
300
300
300
300
300
300
300
300
300
300
300
300
300
300
300
300
300
300
300
300
300
298.891
300.29
300.915
301.654
302.617
319.465
330.933
346.353
325.313
332.416
343.039
389.552
367.247
416.766
382.786
389.263
422.434
737.657
1360.93
1498.79
1049.02
1260.41
1116.24
1344.54
1246.11
1197.45
1316.1
1448.47
1585.04
1642.37
1635.79
1591.62
1537.44
1489.67
1444.06
1288.54
1385.9
1278.62
1388.18
1378.52
1368
1363.15
1389.35
1471.43
1607.67
1673.37
996.172
506.306
344.558
300.22
312.526
303.717
301.175
300.569
300.198
300.031
300
300
300
300
300
300
300
300
300
300
300
300
300
300
300
300
300
300
300
300
300
300
300
300
300
300
300
300
300
300
300
300
300
300
300
300
300
300
300
300
300
300
300
300
300.064
301.535
302.996
325.115
309.854
345.218
358.702
353.52
455.936
462.586
475.048
484.188
519.371
542.275
485.425
487.524
527.777
792.941
1334.6
1353.83
1173.39
1226.03
1326.7
1418.57
1338.58
1338.01
1450.36
1425.78
1620.78
1518.19
1605.36
1559.44
1510.11
1328.23
1441.55
1408.24
1279.27
1392.7
1395.73
1387.89
1377.51
1365.21
1282.98
1476.41
1621.09
1539.78
652.497
360.385
341.104
313.849
300.179
304.481
301.949
301.105
300.486
300.091
300
300
300
300
300
300
300
300
300
300
300
300
300
300
300
300
300
300
300
300
300
300
300
300
300
300
300
300
300
300
300
300
300
300
300
300
300
300
300
300
300
300
300
300
301.075
309.34
328.707
372.523
407.731
443.294
443.462
574.865
1240.12
1080.16
784.448
740.75
771.023
683.762
688.479
677.512
805.681
859.941
1082.82
1383.71
1370.47
1390.84
1470.38
1500.25
1451.14
1460.68
1533.49
1467.33
1634.65
1610.42
1574.61
1527.35
1481.31
1459.95
1444.62
1417.42
1288.42
1288.77
1404.92
1397.6
1386.64
1267.78
1285.99
1483.57
1637.02
1455.96
837.495
352.449
337.339
316.765
310.561
304.634
303.354
302.109
301.069
300.276
300
300
300
300
300
300
300
300
300
300
300
300
300
300
300
300
300
300
300
300
300
300
300
300
300
300
300
300
300
300
300
300
300
300
300
300
300
300
300
300
300
300
300
300
306.462
530.397
567.567
595.785
732.107
1144.96
821.107
828.362
1109.95
1100.58
1106.14
1076.21
1066.59
1037.7
977.596
923.281
962.237
1280.52
1230.5
1484.1
1531.55
1529.62
1545.1
1552.98
1473.62
1563.15
1468.94
1622.6
1621.39
1570.31
1530.37
1493.13
1322.66
1454.46
1451.86
1437.22
1421.35
1301.54
1415.81
1407.25
1395.99
1377.46
1408.11
1497.33
1654.1
1462.55
777.195
426.619
332.694
316.426
308.626
304.871
304.353
303.711
302.04
300.939
300.047
300
300
300
300
300
300
300
300
300
300
300
300
300
300
300
300
300
300
300
300
300
300
300
300
300
300
300
300
300
300
300
300
300
300
300
300
300
300
300
300
300
300
300
457.41
1555.02
1504.17
1400.69
1295.93
1463.61
1182.23
1334.38
1479.17
1406.4
1418
1415.48
1374.48
1377.32
1418.64
1237.48
1161.93
1176.44
1324.33
1547.25
1534.89
1536.41
1590.73
1592.3
1596.43
1460.86
1621.2
1628.89
1595.34
1359.7
1350.32
1331.53
1319.19
1321.96
1323.95
1321.83
1464.65
1461.6
1310.2
1425.95
1295.03
1384.69
1298.15
1371.24
1670.53
1178.45
710.103
405.338
329.605
315.651
307.801
304.842
304.655
304.637
303.469
300.493
300.032
300
300
300
300
300
300
300
300
300
300
300
300
300
300
300
300
300
300
300
300
300
300
300
300
300
300
300
300
300
300
300
300
300
300
300
300
300
300
300
300
300
300
300
1187.18
1574.87
1593.29
1437.3
1570.2
1540.77
1471.15
1523.85
1543.32
1532.74
1415.92
1428.57
1568.63
1579.3
1549.43
1461.67
1379.15
1350.72
1461.56
1549.15
1605.22
1622.16
1632.2
1626.28
1490.07
1622.03
1619.91
1602.84
1570.94
1519.47
1356.97
1483.3
1474.2
1481.47
1486.95
1338.75
1341.99
1489.85
1326.66
1314.54
1440.2
1288.05
1310.44
1532.19
1681.88
1200.88
630.488
384.132
325.38
314.614
307.003
304.186
304.019
304.688
307.093
300.909
300.036
300
300
300
300
300
300
300
300
300
300
300
300
300
300
300
300
300
300
300
300
300
300
300
300
300
300
300
300
300
300
300
300
300
300
300
300
300
300
300
300
300
300
300
1806.99
1564.02
1674.25
1641.2
1562.63
1620.13
1631.52
1634.24
1602.53
1391.93
1411.67
1290.58
1396.69
1612.47
1659.54
1643.44
1588.07
1537.42
1588.69
1611.39
1643.57
1662.97
1662.8
1519.92
1534.95
1614.26
1498.72
1456.34
1432.86
1406.49
1522.37
1505.08
1505.68
1508.51
1362.81
1369.66
1371.5
1526.68
1504.88
1328.61
1317.56
1437.83
1328.84
1561.71
1535.26
795.311
398.596
366.543
321.43
313.71
304.832
302.374
301.899
302.086
301.757
300.199
300
300
300
300
300
300
300
300
300
300
300
300
300
300
300
300
300
300
300
300
300
300
300
300
300
300
300
300
300
300
300
300
300
300
300
300
300
300
300
300
300
300
300
300
1949.79
1655.02
1739.31
1745.82
1651.32
1563.84
1716.31
1715.5
1677.77
1605.75
1487.16
1321.6
1344.2
1452.64
1695.29
1715.54
1573.47
1658.97
1556.63
1662.43
1682.95
1552
1687.73
1674.22
1649.85
1640.52
1636.39
1624.86
1609.2
1581.89
1544.42
1370.28
1368.98
1543.73
1389.97
1571.93
1571.14
1556.76
1533.61
1504.57
1330.32
1322.95
1502.08
1595.31
1518.12
653.27
501.448
352.021
318.488
310.291
302.317
301.135
300.809
300.657
300.349
300.043
300
300
300
300
300
300
300
300
300
300
300
300
300
300
300
300
300
300
300
300
300
300
300
300
300
300
300
300
300
300
300
300
300
300
300
300
300
300
300
300
300
300
300
300
1989.81
1795.53
1758.21
1781.37
1776.98
1770.86
1770.36
1771.68
1759.44
1727.51
1687.95
1680.39
1525.83
1590.71
1753.63
1759.34
1747.99
1724.71
1712.89
1709.51
1719.21
1720.91
1713.61
1700.95
1686.82
1556.57
1666.31
1550.09
1647.47
1613.54
1441.95
1420.29
1568.68
1404.14
1433.59
1609.99
1607.23
1587.72
1396.08
1530.82
1351.24
1493.96
1539.28
1452.07
1448.04
841.234
455.437
341.538
318.246
306.967
301.459
300.652
300.339
300.189
300.067
300
300
300
300
300
300
300
300
300
300
300
300
300
300
300
300
300
300
300
300
300
300
300
300
300
300
300
300
300
300
300
300
300
300
300
300
300
300
300
300
300
300
300
300
300
2000.3
1908.36
1818.12
1770.72
1775.34
1780.75
1778.14
1786.29
1791.04
1786.31
1768.58
1750.45
1736.53
1742.33
1748.28
1772.12
1773.47
1758.37
1745.59
1563.84
1742.84
1556.36
1737.72
1729.59
1718.57
1707.59
1700.56
1695.29
1673.88
1524.64
1487.48
1617.12
1455.77
1452.35
1624.88
1628.98
1487.46
1607.95
1448.65
1551.18
1523.81
1369.09
1578
1651.72
1319.04
739.606
423.308
333.291
316.376
306.416
301.938
300.672
300.219
300.083
300.023
300
300
300
300
300
300
300
300
300
300
300
300
300
300
300
300
300
300
300
300
300
300
300
300
300
300
300
300
300
300
300
300
300
300
300
300
300
300
300
300
300
300
300
300
300
2002.83
1970.71
1917.43
1847.5
1784.29
1763.26
1762.72
1765.8
1765.77
1747.62
1714.35
1668.85
1635.38
1640.97
1685.3
1740.53
1767.26
1617.17
1766.56
1755.4
1569.3
1758.21
1754.03
1748.49
1742.55
1735.74
1535.69
1716.18
1692.34
1524.73
1653.85
1645.14
1639.13
1638.34
1642.22
1643.67
1638.73
1623.15
1502.76
1444.75
1545.11
1545.58
1605.65
1473.59
1162.93
651.406
398.871
328.891
315.305
308.021
303.959
301.427
300.334
300.108
300.039
300
300
300
300
300
300
300
300
300
300
300
300
300
300
300
300
300
300
300
300
300
300
300
300
300
300
300
300
300
300
300
300
300
300
300
300
300
300
300
300
300
300
300
300
300
2002.71
1990.71
1970.32
1932.04
1867.95
1811.27
1783.35
1756.16
1721.87
1666.6
1589.83
1517.34
1478.5
1495.41
1560.51
1644.96
1720.42
1759.46
1775.52
1607.87
1601.9
1770.99
1763.29
1541.38
1540.57
1746.46
1739.37
1726.73
1705.79
1493.96
1478.24
1662.12
1655.26
1653.26
1479.75
1655.26
1646.93
1536.24
1530.72
1596.17
1572.15
1578.16
1632.56
1660.46
1221.41
582.87
378.476
325.061
314.237
309.945
305.639
304.85
300.702
300.191
300.104
300.043
300
300
300
300
300
300
300
300
300
300
300
300
300
300
300
300
300
300
300
300
300
300
300
300
300
300
300
300
300
300
300
300
300
300
300
300
300
300
300
300
300
300
300
300
2001.18
1993.42
1982.07
1963.74
1926.68
1873.09
1823.14
1760.04
1674.93
1554.81
1431.46
1341.62
1306.63
1336.4
1419.88
1530
1638.89
1702.19
1761.59
1777.39
1779.72
1777.3
1770.08
1760.65
1756.64
1750.31
1534.31
1731.21
1712.92
1693.63
1679.37
1448.64
1439.9
1659.57
1660.09
1660.2
1654.69
1642.1
1629.82
1609.81
1591.1
1598.98
1656.36
1625.06
1069.24
526.247
362.701
321.745
313.381
308.237
305.899
305.898
301.091
300.276
300.224
300.173
300
300
300
300
300
300
300
300
300
300
300
300
300
300
300
300
300
300
300
300
300
300
300
300
300
300
300
300
300
300
300
300
300
300
300
300
300
300
300
300
300
300
300
300
1998.26
1988.5
1976.72
1959.88
1930.69
1884.7
1812.39
1704.23
1551.2
1382.82
1239.26
1156.82
1138.83
1183.01
1279.87
1409.57
1541.86
1653.35
1720.58
1765.43
1620.48
1776.98
1770.93
1764.62
1758.89
1750.79
1741.03
1729.83
1712.82
1693.95
1679.02
1452.46
1661.9
1661.35
1662.63
1660.92
1576.13
1654.72
1638.41
1622.27
1606.52
1475.96
1668.62
1555.9
927.769
481.192
351.414
320.436
311.714
306.808
305.541
302.625
300.518
300.272
300.336
300.623
300.056
300
300
300
300
300
300
300
300
300
300
300
300
300
300
300
300
300
300
300
300
300
300
300
300
300
300
300
300
300
300
300
300
300
300
300
300
300
300
300
300
300
300
300
1993.17
1977.58
1961.72
1938.15
1899.64
1835.81
1719.12
1546.63
1351.38
1171.47
1046
988.127
991.33
1049.4
1153.73
1293.1
1442.12
1574.9
1667.82
1737.2
1765.74
1772.66
1766.58
1763.72
1758.38
1549.59
1535.77
1722.78
1704.55
1685.54
1671.34
1662.3
1659.45
1660.64
1661.24
1657.76
1662.5
1661.79
1654.04
1633.86
1622.7
1641.46
1661.48
1248.02
809.627
446.019
342.39
318.978
310.145
306.311
303.357
300.967
300.269
300.2
300.241
300.193
300.022
300
300
300
300
300
300
300
300
300
300
300
300
300
300
300
300
300
300
300
300
300
300
300
300
300
300
300
300
300
300
300
300
300
300
300
300
300
300
300
300
300
300
300
1984.19
1958.3
1932.97
1898.18
1836.8
1726.48
1552.34
1333.05
1129.98
973.044
880.244
849.631
871.297
939.212
1047.08
1187.33
1344.79
1491.38
1612.54
1687.19
1736.58
1756.14
1602.32
1756.39
1749.78
1737.25
1722.98
1707.41
1688.52
1669.92
1658.54
1653.02
1653.85
1514.37
1571.95
1657.49
1670.28
1669.95
1661.24
1644.98
1639.7
1661.65
1632.72
1328.91
705.067
418.545
335.466
317.128
308.707
305.868
303.164
300.501
300.142
300.116
300.113
300.052
300
300
300
300
300
300
300
300
300
300
300
300
300
300
300
300
300
300
300
300
300
300
300
300
300
300
300
300
300
300
300
300
300
300
300
300
300
300
300
300
300
300
300
300
1968.43
1919.2
1877.48
1816.1
1720.13
1561.12
1339.04
1113.39
934.21
813.14
751.578
742.446
777.415
851.034
958.93
1095.8
1253.61
1407.5
1540.8
1631.78
1695.77
1725.09
1736.28
1738.25
1572.64
1717.6
1699.38
1505.6
1665.23
1648.71
1642.34
1641.21
1645.77
1650.74
1646.76
1661.58
1681.48
1678.29
1668.17
1661.56
1658.86
1673.47
1576.44
920.127
624.421
395.73
330.943
315.198
307.437
304.604
301.301
300.262
300.072
300.054
300.039
300
300
300
300
300
300
300
300
300
300
300
300
300
300
300
300
300
300
300
300
300
300
300
300
300
300
300
300
300
300
300
300
300
300
300
300
300
300
300
300
300
300
300
300
300
1938.92
1834.83
1744.42
1659.24
1529.78
1337.73
1111.83
916.751
778.216
690.493
654.359
661.74
704.639
780.733
886.716
1018.52
1171.02
1325.8
1464.18
1571.4
1575.18
1681.57
1701.31
1707.85
1544.05
1686.69
1665.62
1651.75
1634.46
1623.25
1623.79
1627.61
1636.26
1641.57
1647.08
1673.41
1693.36
1685.86
1674.51
1670.35
1479.06
1673.05
1491.13
1062.86
556.195
376.227
327.067
313.283
306.22
304.154
300.952
300.186
300.039
300.02
300
300
300
300
300
300
300
300
300
300
300
300
300
300
300
300
300
300
300
300
300
300
300
300
300
300
300
300
300
300
300
300
300
300
300
300
300
300
300
300
300
300
300
300
300
300
1874.32
1655.86
1499.03
1393.19
1256.98
1076.7
896.468
752.382
653.962
597.785
583.098
601.662
648.146
723.865
826.697
952.772
1097.46
1248.78
1387.14
1497.57
1571.47
1615.28
1649.53
1661.88
1660.44
1646.1
1446.4
1611.18
1599.58
1595.02
1604.28
1612.72
1622.98
1638.07
1657.47
1689.31
1703.36
1690.82
1680.7
1679.16
1679.63
1654.41
1380.59
921.487
500.167
361.015
323.915
311.405
305.341
302.844
301.084
300.235
300.035
300
300
300
300
300
300
300
300
300
300
300
300
300
300
300
300
300
300
300
300
300
300
300
300
300
300
300
300
300
300
300
300
300
300
300
300
300
300
300
300
300
300
300
300
300
300
300
1687.72
1301.38
1113.55
1030.29
942.089
827.115
714.845
625.067
564.898
535.243
531.683
556.12
603.402
676.839
775.365
895.31
1031.96
1176.73
1311.87
1421.11
1500.57
1542.14
1579.63
1601.59
1608.81
1426.05
1419.87
1567.11
1561.99
1566.15
1452.02
1595.18
1606.21
1638.46
1674.07
1701.77
1710.09
1693
1686.92
1686.1
1678.1
1606.11
1244.86
567.511
457.563
349.242
321.334
309.639
304.047
302.068
301.703
300.384
300.049
300
300
300
300
300
300
300
300
300
300
300
300
300
300
300
300
300
300
300
300
300
300
300
300
300
300
300
300
300
300
300
300
300
300
300
300
300
300
300
300
300
300
300
300
300
300
300
374.897
453.9
515.351
556.2
568.167
555.368
529.592
502.602
482.006
472.684
479.072
507.452
556.689
625.363
715.535
824.07
945.007
1072.57
1194.14
1296.11
1372.54
1425.18
1451.39
1474.12
1496.26
1493.61
1488.92
1490.7
1501.14
1520.72
1545.16
1566.17
1612.05
1657.92
1694.53
1718.57
1717.17
1691.64
1694.84
1686.11
1646.52
1464.41
733.537
608.331
399.598
334.11
315.759
305.692
301.54
300.931
301.017
300.425
300.025
300
300
300
300
300
300
300
300
300
300
300
300
300
300
300
300
300
300
300
300
300
300
300
300
300
300
300
300
300
300
300
300
300
300
300
300
300
300
300
300
300
300
300
300
300
300
300
308.972
330.76
357.363
382.626
402.171
413.857
417.985
417.817
417.627
421.687
433.532
457.334
501.231
562.724
640.543
734.519
838.952
946.732
1051.67
1143.59
1214.4
1266.58
1301.53
1326.99
1348.86
1363.26
1381.89
1403.34
1439.61
1485.01
1526.15
1561.25
1614.6
1662.02
1701.92
1722.48
1708.07
1688.27
1687.93
1649.29
1537.51
935.205
574.702
490.465
361.883
324.738
310.219
302.61
300.635
300.29
300.175
300.036
300
300
300
300
300
300
300
300
300
300
300
300
300
300
300
300
300
300
300
300
300
300
300
300
300
300
300
300
300
300
300
300
300
300
300
300
300
300
300
300
300
300
300
300
300
300
300
300
301.379
306.756
316.052
328.191
341.377
353.308
363.023
370.756
378.489
388.34
402.652
424.334
457.76
510.131
575.898
653.892
740.91
830.358
916.807
995.633
1061.5
1113.81
1155.88
1192.81
1228.38
1261.69
1292.35
1335.59
1388.15
1449.37
1509.53
1558.08
1596.5
1648.2
1692.72
1708.48
1671.09
1677.34
1642.24
1542.48
1329.81
950.734
646.992
416.51
339.528
317.873
306.271
301.374
300.323
300.087
300.025
300
300
300
300
300
300
300
300
300
300
300
300
300
300
300
300
300
300
300
300
300
300
300
300
300
300
300
300
300
300
300
300
300
300
300
300
300
300
300
300
300
300
300
300
300
300
300
300
300
300.286
301.569
304.513
309.708
316.966
325.422
334.224
343.354
353.193
365.13
380.387
400.529
428.611
469.52
525.26
589.636
660.696
734.285
805.94
873.531
935.958
991.075
1041.02
1089.43
1138.07
1188.95
1235
1289.87
1348.72
1413.24
1475.76
1535.08
1567.37
1619.09
1663.68
1667.21
1636.79
1626.07
1539.14
1339.18
1043.44
756.124
503.606
368.895
327.441
312.455
303.696
301.065
300.296
300.058
300
300
300
300
300
300
300
300
300
300
300
300
300
300
300
300
300
300
300
300
300
300
300
300
300
300
300
300
300
300
300
300
300
300
300
300
300
300
300
300
300
300
300
300
300
300
300
300
300
300
300.053
300.371
301.323
303.472
307.163
312.356
318.851
326.704
336.442
348.494
363.704
382.893
408.143
442.935
488.852
544.25
604.321
667.035
729.602
790.711
850.652
908.666
965.166
1021.9
1080.2
1139.54
1199.05
1260.22
1322.22
1385.86
1444.99
1494.93
1520.5
1569.43
1608.3
1585.1
1588.47
1517.93
1368.82
1058.84
789.188
579.396
413.809
340.746
318.32
306.837
301.632
300.826
300.407
300.046
300
300
300
300
300
300
300
300
300
300
300
300
300
300
300
300
300
300
300
300
300
300
300
300
300
300
300
300
300
300
300
300
300
300
300
300
300
300
300
300
300
300
300
300
300
300
300
300
300
300
300
300.1
300.426
301.338
303.158
306.128
310.488
316.602
325.078
336.501
351.175
368.965
391.521
423.562
463.654
512.762
566.949
623.974
682.13
740.755
800.098
860.502
921.674
984.446
1049.24
1114.8
1180.1
1242.44
1302.18
1359.06
1407.28
1434.41
1448.04
1484.19
1516.96
1537.29
1477.22
1334.45
1153.55
801.866
599.62
453.576
360.724
326.11
310.603
302.7
300.813
300.35
300.092
300
300
300
300
300
300
300
300
300
300
300
300
300
300
300
300
300
300
300
300
300
300
300
300
300
300
300
300
300
300
300
300
300
300
300
300
300
300
300
300
300
300
300
300
300
300
300
300
300
300
300
300
300.035
300.153
300.543
301.434
303.117
305.951
310.493
317.503
327.692
341.011
357.253
377.842
408.623
446.999
492.069
543.096
597.693
654.373
712.562
772.602
835.077
899.595
966.483
1034.95
1103.28
1168.69
1227.59
1279.58
1323.78
1351.68
1345.14
1353.93
1392.91
1442.4
1436.61
1305.66
1088.86
909.569
607.087
467.802
380.396
334.453
316.209
305.928
301.166
300.363
300.11
300.022
300
300
300
300
300
300
300
300
300
300
300
300
300
300
300
300
300
300
300
300
300
300
300
300
300
300
300
300
300
300
300
300
300
300
300
300
300
300
300
300
300
300
300
300
300
300
300
300
300
300
300
300
300
300.058
300.227
300.668
301.621
303.456
306.77
312.386
320.984
333.09
348.446
367.825
396.895
435.688
478.615
527.811
581.553
638.017
696.656
757.929
822.079
888.953
958.018
1027.67
1095.42
1156.78
1207.81
1245.36
1265.62
1266.91
1254.02
1249.58
1278.31
1322.82
1282.63
1092.37
842.931
688.487
478.237
391.197
341.986
321.041
309.213
303.468
300.882
300.324
300.053
300
300
300
300
300
300
300
300
300
300
300
300
300
300
300
300
300
300
300
300
300
300
300
300
300
300
300
300
300
300
300
300
300
300
300
300
300
300
300
300
300
300
300
300
300
300
300
300
300
300
300
300
300
300
300
300.078
300.249
300.7
301.769
303.984
308.385
315.932
326.908
341.518
360.054
387.772
426.349
468.811
517.521
571.018
627.686
686.975
749.31
814.711
882.767
952.22
1020.58
1084.03
1136.32
1172.63
1188.11
1184.54
1164.24
1132.04
1103.15
1121.1
1160.53
1097.6
872.592
644.523
524.798
400.491
347.837
324.949
311.52
304.966
301.216
300.423
300.112
300
300
300
300
300
300
300
300
300
300
300
300
300
300
300
300
300
300
300
300
300
300
300
300
300
300
300
300
300
300
300
300
300
300
300
300
300
300
300
300
300
300
300
300
300
300
300
300
300
300
300
300
300
300
300
300
300.024
300.075
300.238
300.722
302.018
305.156
311.551
321.561
335.339
353.162
380.164
418.152
460.575
509.023
562.269
618.924
678.497
741.199
806.825
874.412
941.948
1006.12
1061.5
1098.64
1114.25
1107.84
1080.41
1039.1
985.855
933.719
938.773
971.177
907.147
684.866
506.781
423.183
355.107
328.02
313.936
305.694
301.55
300.559
300.157
300.034
300
300
300
300
300
300
300
300
300
300
300
300
300
300
300
300
300
300
300
300
300
300
300
300
300
300
300
300
300
300
300
300
300
300
300
300
300
300
300
300
300
300
300
300
300
300
300
300
300
300
300
300
300
300
300
300
300
300.022
300.068
300.238
300.828
302.682
307.56
316.557
329.33
345.923
371.946
408.874
451.045
498.86
551.332
607.275
666.241
728.091
792.272
857.229
919.857
976.256
1020.43
1043.67
1039.85
1006.87
955.199
896.776
834.232
765.267
756.64
775.769
719.597
537.256
417.912
364.535
331.579
315.806
306.836
301.736
300.638
300.178
300.044
300
300
300
300
300
300
300
300
300
300
300
300
300
300
300
300
300
300
300
300
300
300
300
300
300
300
300
300
300
300
300
300
300
300
300
300
300
300
300
300
300
300
300
300
300
300
300
300
300
300
300
300
300
300
300
300
300
300
300
300.019
300.067
300.278
301.149
304.229
311.785
323.485
339.112
362.621
397.474
438.669
484.96
535.69
589.826
646.813
706.092
766.598
825.771
880.098
925.476
957.272
965.987
941.825
887.113
818.217
752.467
697.37
623.624
590.58
603.649
558.885
436.917
365.128
335.062
318.189
308.562
302.737
300.716
300.219
300.054
300
300
300
300
300
300
300
300
300
300
300
300
300
300
300
300
300
300
300
300
300
300
300
300
300
300
300
300
300
300
300
300
300
300
300
300
300
300
300
300
300
300
300
300
300
300
300
300
300
300
300
300
300
300
300
300
300
300
300
300
300
300
300.083
300.413
301.956
307.229
317.629
331.84
351.628
383.31
422.714
466.364
514.15
565.169
618.594
673.286
727.39
778.005
821.946
853.576
871.652
868.55
829.65
761.205
683.548
618.288
570.964
513.488
471.885
473.403
442.088
373.224
335.792
319.58
309.296
303.339
300.989
300.363
300.077
300
300
300
300
300
300
300
300
300
300
300
300
300
300
300
300
300
300
300
300
300
300
300
300
300
300
300
300
300
300
300
300
300
300
300
300
300
300
300
300
300
300
300
300
300
300
300
300
300
300
300
300
300
300
300
300
300
300
300
300
300
300
300
300.024
300.123
300.739
303.502
311.547
324.197
340.82
367.214
402.904
442.919
486.47
532.852
580.89
628.885
674.182
714.688
747.984
763.941
769.489
761.458
713.803
641.389
564.595
506.345
469.031
433.155
395.525
388.07
368.93
337.465
319.951
309.577
303.489
300.881
300.335
300.102
300.022
300
300
300
300
300
300
300
300
300
300
300
300
300
300
300
300
300
300
300
300
300
300
300
300
300
300
300
300
300
300
300
300
300
300
300
300
300
300
300
300
300
300
300
300
300
300
300
300
300
300
300
300
300
300
300
300
300
300
300
300
300
300
300
300
300.035
300.203
301.411
305.959
316.227
330.573
349.751
379.51
415.467
453.81
494.047
535.001
574.221
609.461
639.474
665.454
664.617
658.936
643.171
600.323
535.199
469.261
423.006
394.781
373.595
349.307
341.339
332.424
318.827
309.318
303.28
300.857
300.282
300.097
300.027
300
300
300
300
300
300
300
300
300
300
300
300
300
300
300
300
300
300
300
300
300
300
300
300
300
300
300
300
300
300
300
300
300
300
300
300
300
300
300
300
300
300
300
300
300
300
300
300
300
300
300
300
300
300
300
300
300
300
300
300
300
300
300
300
300
300
300.057
300.329
301.948
308.571
320.066
335.221
356.108
384.818
418.123
451.502
484.02
513.606
538.448
557.959
571.719
564.35
551.803
533.558
496.99
447.31
400.433
366.13
347.156
336.786
326.52
320.362
314.909
308.232
302.656
300.797
300.269
300.084
300.026
300
300
300
300
300
300
300
300
300
300
300
300
300
300
300
300
300
300
300
300
300
300
300
300
300
300
300
300
300
300
300
300
300
300
300
300
300
300
300
300
300
300
300
300
300
300
300
300
300
300
300
300
300
300
300
300
300
300
300
300
300
300
300
300
300
300
300
300
300.099
300.552
302.787
310.352
321.77
336.441
355.711
380.917
407.787
432.482
453.044
468.268
478.553
485.81
473.713
458.96
441.018
414.416
381.143
353.466
334.846
324.779
318.5
312.389
308.907
305.726
301.766
300.678
300.243
300.079
300.024
300
300
300
300
300
300
300
300
300
300
300
300
300
300
300
300
300
300
300
300
300
300
300
300
300
300
300
300
300
300
300
300
300
300
300
300
300
300
300
300
300
300
300
300
300
300
300
300
300
300
300
300
300
300
300
300
300
300
300
300
300
300
300
300
300
300
300
300
300
300.033
300.153
300.811
303.488
310.451
320.638
333.332
348.022
366.028
382.759
397.202
406.58
410.844
410.287
401.411
388.733
374.984
359.158
341.843
328.144
318.126
311.966
308.008
304.756
302.069
301.062
300.497
300.194
300.069
300.022
300
300
300
300
300
300
300
300
300
300
300
300
300
300
300
300
300
300
300
300
300
300
300
300
300
300
300
300
300
300
300
300
300
300
300
300
300
300
300
300
300
300
300
300
300
300
300
300
300
300
300
300
300
300
300
300
300
300
300
300
300
300
300
300
300
300
300
300
300
300
300
300.048
300.196
300.874
303.083
308.955
316.835
326.252
336.191
345.464
353.308
358.006
359.275
357.302
352.132
345.29
337.95
329.438
320.88
313.608
308.262
304.64
301.841
300.993
300.559
300.291
300.133
300.053
300
300
300
300
300
300
300
300
300
300
300
300
300
300
300
300
300
300
300
300
300
300
300
300
300
300
300
300
300
300
300
300
300
300
300
300
300
300
300
300
300
300
300
300
300
300
300
300
300
300
300
300
300
300
300
300
300
300
300
300
300
300
300
300
300
300
300
300
300
300
300
300
300
300
300.056
300.201
300.731
302.054
306.393
311.419
317.227
322.743
327.036
329.362
329.845
328.599
325.881
322.106
317.931
313.381