/*--------------------------------*- C++ -*----------------------------------*\
  =========                 |
  \\      /  F ield         | OpenFOAM: The Open Source CFD Toolbox
   \\    /   O peration     | Website:  https://openfoam.org
    \\  /    A nd           | Version:  6
     \\/     M anipulation  |
\*---------------------------------------------------------------------------*/
FoamFile
{
    version     2.0;
    format      ascii;
    class       volScalarField;
    location    "0.005";
    object      T-CH2;
}
// * * * * * * * * * * * * * * * * * * * * * * * * * * * * * * * * * * * * * //

dimensions      [0 0 0 0 0 0 0];

internalField   nonuniform List<scalar> 
8000
(
6.84094e-29
3.66054e-24
2.8614e-23
4.42619e-22
1.12344e-20
3.15103e-19
6.08591e-18
6.46214e-17
3.56319e-16
1.25523e-15
3.30284e-15
7.22328e-15
1.41133e-14
2.18364e-14
2.29367e-14
2.1927e-14
3.09297e-14
8.04213e-14
3.57833e-13
3.26508e-12
7.82761e-11
8.46568e-09
1.43126e-06
1.47036e-06
9.20564e-06
2.64845e-05
3.2026e-05
3.41547e-05
3.58202e-05
3.73707e-05
3.96249e-05
4.08138e-05
3.57321e-05
2.67203e-05
1.89978e-05
1.48866e-05
1.31376e-05
1.18881e-05
1.12856e-05
1.05409e-05
1.04389e-05
1.04945e-05
1.10496e-05
1.26982e-05
2.45896e-05
2.30828e-05
1.02617e-06
3.02259e-07
4.77509e-08
1.07707e-10
3.22673e-13
1.01707e-14
3.42401e-16
0
0
0
0
0
0
0
0
0
0
0
0
0
0
0
0
0
0
0
0
0
0
0
0
0
0
0
0
0
0
0
0
0
0
0
0
0
0
0
0
0
0
0
0
0
0
0
2.07434e-27
8.21904e-23
2.10636e-22
2.37115e-21
3.56608e-20
8.85016e-19
2.01775e-17
2.9172e-16
2.12447e-15
8.21158e-15
2.15931e-14
4.13432e-14
7.16156e-14
1.25068e-13
1.1681e-13
7.72857e-14
8.60017e-14
2.09601e-13
7.27174e-13
4.84138e-12
1.05968e-10
1.98746e-08
2.33126e-05
4.80964e-06
1.26293e-05
3.23852e-05
3.21187e-05
3.44148e-05
3.70487e-05
3.78767e-05
3.96172e-05
4.0932e-05
3.57443e-05
2.63799e-05
1.85749e-05
1.49913e-05
1.29917e-05
1.17935e-05
1.12083e-05
1.07024e-05
1.04403e-05
1.04239e-05
1.09891e-05
1.26126e-05
2.40619e-05
2.64835e-05
1.17557e-06
2.21544e-07
6.86201e-08
6.47433e-11
2.52803e-15
1.57519e-17
1.776e-16
0
0
0
0
0
0
0
0
0
0
0
0
0
0
0
0
0
0
0
0
0
0
0
0
0
0
0
0
0
0
0
0
0
0
0
0
0
0
0
0
0
0
0
0
0
0
0
1.13533e-23
1.0279e-15
4.58275e-23
3.08536e-16
2.83029e-19
4.67432e-18
9.42432e-17
2.04857e-15
4.60818e-14
1.60152e-13
4.7209e-13
7.72016e-13
9.38476e-13
1.66142e-12
9.27633e-14
5.35223e-14
4.31467e-13
1.21373e-12
3.13216e-12
1.07846e-11
9.26531e-11
4.72466e-09
9.54429e-07
9.18877e-07
5.59447e-06
2.70055e-05
3.40896e-06
3.12637e-05
3.52028e-05
3.58002e-05
3.86e-05
4.09429e-05
3.54952e-05
2.55698e-05
1.76754e-05
1.46793e-05
1.28313e-05
1.15549e-05
1.09459e-05
1.05349e-05
1.02795e-05
1.03347e-05
1.07418e-05
1.25955e-05
2.27494e-05
3.11278e-05
6.88322e-07
9.97903e-08
4.24297e-10
3.9042e-11
1.91755e-13
7.73809e-15
5.93888e-18
0
0
0
0
0
0
0
0
0
0
0
0
0
0
0
0
0
0
0
0
0
0
0
0
0
0
0
0
0
0
0
0
0
0
0
0
0
0
0
0
0
0
0
0
0
0
0
1.96907e-27
1.53763e-21
1.02341e-19
1.67445e-18
1.17257e-17
4.18687e-17
3.49259e-16
5.708e-15
1.22448e-13
7.80964e-14
2.13187e-11
2.72855e-11
2.28231e-11
1.42295e-13
9.90533e-13
6.87637e-13
1.60652e-12
1.41229e-11
1.29341e-12
6.26866e-11
2.71804e-10
2.13211e-10
5.87822e-08
2.58031e-07
1.94735e-06
1.24994e-05
2.46914e-05
3.17342e-05
3.39738e-05
1.40708e-05
3.8526e-05
4.06485e-05
3.4508e-05
2.43551e-05
1.63761e-05
1.37557e-05
1.24306e-05
1.16577e-05
1.07113e-05
1.03694e-05
1.00802e-05
1.01264e-05
1.05479e-05
1.23484e-05
2.18222e-05
2.92015e-05
7.43891e-07
1.65254e-08
5.49196e-10
3.99294e-12
7.92377e-14
4.87031e-15
4.75916e-20
0
0
0
0
0
0
0
0
0
0
0
0
0
0
0
0
0
0
0
0
0
0
0
0
0
0
0
0
0
0
0
0
0
0
0
0
0
0
0
0
0
0
0
0
0
0
0
3.28757e-25
2.71794e-21
2.59209e-15
4.70224e-17
1.3147e-14
5.02322e-16
1.31807e-15
2.24036e-14
2.24617e-13
1.67639e-13
1.29259e-10
2.68766e-11
2.66665e-12
8.24365e-12
1.7682e-12
9.9174e-14
8.81505e-12
3.43421e-12
4.26155e-10
5.77219e-10
1.52053e-10
3.40208e-10
2.67235e-08
5.66651e-08
4.72888e-07
6.26514e-06
2.06638e-05
3.30881e-05
3.92805e-05
3.69952e-05
3.81979e-05
3.95577e-05
3.27277e-05
2.26356e-05
1.54844e-05
1.44398e-06
1.22737e-05
1.1241e-05
1.07488e-05
1.01006e-05
9.85747e-06
9.90849e-06
1.04804e-05
1.212e-05
2.0857e-05
2.86813e-05
5.33144e-07
3.99303e-09
4.81326e-11
7.58907e-13
2.74649e-14
9.93813e-16
0
0
0
0
0
0
0
0
0
0
0
0
0
0
0
0
0
0
0
0
0
0
0
0
0
0
0
0
0
0
0
0
0
0
0
0
0
0
0
0
0
0
0
0
0
0
0
0
1.15928e-23
4.25401e-22
8.42325e-18
1.53612e-14
3.65739e-15
2.55062e-14
2.76676e-15
9.25553e-15
7.65834e-14
1.34223e-12
1.87374e-11
2.10663e-11
7.15146e-12
1.96417e-12
1.68181e-12
6.08608e-12
6.09289e-11
1.25106e-10
1.05463e-08
9.38321e-10
7.06659e-09
9.45056e-10
3.5309e-08
8.16299e-08
1.78051e-06
5.76025e-06
1.28875e-05
1.17611e-05
1.33831e-05
2.68799e-05
3.40957e-05
3.73726e-05
1.38287e-05
2.14881e-05
1.55817e-05
1.29133e-05
1.19435e-05
1.11724e-05
1.04736e-05
9.81393e-06
9.63141e-06
9.69988e-06
4.81431e-07
1.18231e-05
1.97815e-05
3.08065e-05
6.39108e-07
2.45723e-09
1.41525e-11
3.22075e-13
5.51077e-15
3.83942e-18
0
0
0
0
0
0
0
0
0
0
0
0
0
0
0
0
0
0
0
0
0
0
0
0
0
0
0
0
0
0
0
0
0
0
0
0
0
0
0
0
0
0
0
0
0
0
0
0
1.06904e-23
5.89249e-21
1.30655e-18
2.79502e-17
2.13077e-16
7.79926e-16
1.26532e-14
2.22429e-14
9.28e-14
3.02279e-13
4.3763e-14
6.99736e-14
6.14566e-14
1.60741e-12
4.49238e-12
2.86131e-11
2.2075e-10
5.4123e-09
1.19213e-07
8.04316e-08
2.84543e-08
4.7297e-08
3.12008e-08
6.42769e-07
2.08834e-05
1.16723e-05
8.97053e-06
1.26181e-05
1.4873e-05
2.25141e-05
3.25321e-05
3.51309e-05
2.84606e-05
2.02862e-05
1.51879e-05
1.26768e-05
1.1536e-05
1.09508e-05
1.02657e-05
3.55977e-07
9.42677e-06
9.51183e-06
1.01801e-05
1.16449e-05
1.85666e-05
3.44666e-05
9.00123e-07
3.50402e-09
1.28595e-11
1.80022e-13
4.49372e-17
6.92986e-18
0
0
0
0
0
0
0
0
0
0
0
0
0
0
0
0
0
0
0
0
0
0
0
0
0
0
0
0
0
0
0
0
0
0
0
0
0
0
0
0
0
0
0
0
0
0
0
0
8.41731e-16
4.29315e-16
1.11854e-18
3.06294e-17
2.09006e-16
1.09945e-14
1.84756e-14
3.22438e-13
8.19749e-14
1.10656e-12
9.07569e-13
9.1942e-13
1.47801e-12
8.24243e-12
3.36365e-13
1.06672e-12
6.01006e-11
3.93438e-09
1.99e-06
3.28416e-07
2.5364e-07
2.5495e-07
1.42252e-07
1.05768e-06
6.29358e-06
2.90064e-06
4.74066e-06
6.88895e-06
1.3466e-05
2.64282e-05
3.3136e-05
3.13083e-05
2.53241e-05
1.86834e-05
1.45774e-05
1.25251e-05
1.1391e-05
1.06928e-05
1.01313e-05
9.49468e-06
9.26565e-06
9.3234e-06
1.01066e-05
1.15053e-05
1.72144e-05
3.82058e-05
1.1786e-06
7.6507e-11
1.24448e-11
1.83972e-19
5.28322e-22
4.06675e-18
0
0
0
0
0
0
0
0
0
0
0
0
0
0
0
0
0
0
0
0
0
0
0
0
0
0
0
0
0
0
0
0
0
0
0
0
0
0
0
0
0
0
0
0
0
0
0
0
1.23223e-15
2.81093e-15
1.04124e-17
4.55744e-16
9.49819e-15
8.4513e-15
5.20844e-14
3.05772e-12
9.26332e-13
1.17134e-11
1.23075e-13
8.74445e-14
8.32944e-12
3.02951e-11
1.09283e-10
1.06861e-11
3.00613e-10
1.31462e-08
1.46379e-05
2.4078e-06
1.00914e-06
6.98677e-07
1.08485e-06
1.14536e-06
2.62543e-06
3.92707e-06
4.31842e-06
7.48139e-06
1.98628e-05
3.37893e-05
1.6607e-05
1.42841e-05
2.19357e-05
1.73406e-05
1.3738e-05
1.18561e-05
1.10607e-05
1.05015e-05
1.00742e-05
9.49471e-06
3.21642e-07
3.14915e-07
1.00251e-05
1.14719e-05
5.59884e-06
2.36785e-05
1.26748e-06
3.26952e-09
7.50595e-12
5.36464e-15
3.3988e-17
2.69338e-18
0
0
0
0
0
0
0
0
0
0
0
0
0
0
0
0
0
0
0
0
0
0
0
0
0
0
0
0
0
0
0
0
0
0
0
0
0
0
0
0
0
0
0
0
0
0
0
0
4.37519e-24
5.7144e-15
5.53107e-15
2.5994e-14
4.81056e-15
4.00757e-14
3.07274e-13
2.80749e-12
2.41592e-11
1.82941e-11
6.86935e-11
1.4559e-10
5.15229e-11
1.00294e-10
3.90505e-10
2.25342e-10
7.3926e-09
2.239e-07
1.342e-05
5.13879e-06
3.20816e-06
5.00529e-06
4.02683e-06
5.26589e-06
5.34096e-06
5.0679e-06
6.68051e-06
1.09721e-05
2.20173e-05
1.32042e-05
3.10844e-05
2.44242e-05
6.88923e-06
1.56954e-05
1.3148e-05
7.45551e-07
1.07103e-05
1.03689e-05
1.00938e-05
9.59839e-06
3.59003e-07
9.19919e-06
1.00055e-05
1.15466e-05
1.88804e-05
3.72593e-05
2.41206e-07
1.64731e-09
4.41148e-12
2.61393e-16
3.76401e-17
2.6737e-18
0
0
0
0
0
0
0
0
0
0
0
0
0
0
0
0
0
0
0
0
0
0
0
0
0
0
0
0
0
0
0
0
0
0
0
0
0
0
0
0
0
0
0
0
0
0
0
0
4.42896e-15
2.2472e-17
6.23297e-16
6.76111e-15
6.58232e-14
1.01872e-13
7.06423e-14
2.09088e-11
4.98605e-10
1.24525e-09
3.02376e-09
3.95562e-09
7.40889e-09
1.74001e-09
6.70878e-09
8.01866e-09
1.95712e-08
5.33536e-08
5.27547e-06
1.51634e-05
7.5191e-06
7.60358e-06
9.75243e-06
1.17535e-05
8.18411e-06
9.32346e-06
1.24482e-05
1.74588e-05
2.67303e-05
3.17652e-05
2.87797e-05
2.24282e-05
1.78043e-05
1.46014e-05
1.25619e-05
7.56924e-07
1.0484e-05
6.39158e-07
1.01891e-05
9.7802e-06
9.40765e-06
9.24172e-06
9.99913e-06
1.17328e-05
2.01423e-05
3.48498e-05
5.92082e-07
8.2508e-10
2.61286e-12
3.68972e-21
2.4925e-17
2.67878e-18
0
0
0
0
0
0
0
0
0
0
0
0
0
0
0
0
0
0
0
0
0
0
0
0
0
0
0
0
0
0
0
0
0
0
0
0
0
0
0
0
0
0
0
0
0
0
0
0
4.47255e-19
3.73884e-15
1.15827e-13
7.88558e-14
2.15373e-11
4.01693e-11
5.74377e-11
4.23653e-09
2.33947e-07
2.07601e-07
2.09173e-07
2.03183e-07
2.46665e-07
8.40374e-08
1.01342e-07
9.27686e-08
1.60006e-07
2.24257e-07
5.00221e-06
8.26463e-06
1.13735e-05
1.3088e-05
1.77867e-05
2.38179e-05
1.67954e-05
1.49879e-05
1.9803e-05
1.52202e-05
3.06037e-05
1.47728e-05
2.47083e-05
2.00743e-05
1.60423e-05
1.54453e-06
1.23083e-05
1.14547e-05
6.87033e-07
1.0406e-05
1.03681e-05
1.00079e-05
9.63184e-06
9.26193e-06
5.09721e-07
1.20017e-05
2.18237e-05
2.14335e-05
1.073e-07
2.71762e-12
1.60873e-12
1.51841e-16
2.09537e-22
3.17525e-18
9.33937e-20
0
0
0
0
0
0
0
0
0
0
0
0
0
0
0
0
0
0
0
0
0
0
0
0
0
0
0
0
0
0
0
0
0
0
0
0
0
0
0
0
0
0
0
0
0
0
0
2.40536e-16
2.05184e-11
3.52546e-10
5.61765e-10
8.73727e-09
2.53656e-08
5.31514e-08
1.02674e-07
1.37145e-05
3.74544e-06
1.88557e-06
1.6243e-06
2.32887e-06
8.87789e-07
9.8939e-07
7.07887e-07
4.94813e-07
2.22947e-06
7.74568e-06
1.10791e-05
2.1026e-05
2.0496e-05
2.58135e-05
1.85176e-05
2.22209e-05
2.11306e-05
2.46319e-05
1.47921e-05
3.03507e-05
2.60065e-05
2.13063e-05
1.73339e-05
1.45647e-05
1.33042e-05
1.23094e-05
1.16958e-05
8.33406e-07
8.26227e-07
1.06225e-05
1.02649e-05
9.85973e-06
4.39701e-07
5.59362e-07
1.2412e-05
2.39958e-05
1.58903e-05
2.14316e-07
1.20726e-12
1.11077e-12
1.84511e-14
1.25983e-17
3.23808e-18
2.06247e-18
2.56701e-19
0
0
0
0
0
0
0
0
0
0
0
0
0
0
0
0
0
0
0
0
0
0
0
0
0
0
0
0
0
0
0
0
0
0
0
0
0
0
0
0
0
0
0
0
0
0
8.95792e-13
5.35005e-07
6.40735e-07
6.46882e-07
1.39122e-06
3.61053e-06
9.45396e-07
2.23442e-06
8.89433e-06
1.00475e-05
1.0319e-05
9.12337e-06
8.31223e-06
6.87495e-06
5.00517e-06
3.29894e-06
3.61814e-06
5.43325e-06
1.40848e-05
1.72353e-05
1.75414e-05
3.03133e-05
3.02739e-05
3.02138e-05
1.65585e-05
2.78111e-05
1.43985e-05
3.06458e-05
2.85057e-05
2.14684e-05
1.80864e-05
1.53808e-05
1.44397e-06
1.29953e-05
1.25522e-05
1.22764e-05
1.16906e-05
1.09433e-06
1.09791e-05
1.0552e-05
1.01134e-05
9.54758e-06
1.03765e-05
1.29752e-05
2.71856e-05
1.34938e-05
1.21898e-07
7.04706e-11
7.07103e-13
1.38414e-14
8.41392e-18
3.34308e-18
2.64049e-18
1.97121e-18
1.53541e-19
0
0
0
0
0
0
0
0
0
0
0
0
0
0
0
0
0
0
0
0
0
0
0
0
0
0
0
0
0
0
0
0
0
0
0
0
0
0
0
0
0
0
0
0
0
9.68465e-10
1.40104e-05
1.3289e-05
1.40879e-05
1.47765e-05
1.6467e-05
1.0064e-05
1.05727e-05
1.78547e-05
2.46634e-05
1.23291e-05
2.28769e-05
1.36718e-05
1.93002e-05
1.53736e-05
1.09504e-05
7.74072e-06
8.67074e-06
1.71874e-05
2.17827e-05
1.77612e-05
2.02507e-05
3.2777e-05
3.21756e-05
3.14135e-05
9.81889e-06
3.10925e-05
2.96583e-05
2.43915e-05
2.6769e-06
2.28734e-06
1.643e-06
1.38389e-06
1.52125e-06
1.67471e-06
1.7118e-06
1.3019e-05
1.25726e-05
1.23166e-06
1.09915e-05
8.12881e-07
9.74002e-06
7.73298e-07
2.55636e-06
2.97884e-05
5.26171e-06
6.0474e-08
3.15882e-11
4.72856e-13
5.01365e-17
7.1151e-18
3.29464e-18
2.82582e-18
2.3466e-18
1.43244e-18
0
0
0
0
0
0
0
0
0
0
0
0
0
0
0
0
0
0
0
0
0
0
0
0
0
0
0
0
0
0
0
0
0
0
0
0
0
0
0
0
0
0
0
0
0
4.19701e-06
3.85476e-05
4.31116e-05
5.72052e-06
3.66159e-05
2.06978e-05
2.43152e-05
3.15154e-05
1.96551e-05
3.14588e-05
1.92076e-05
7.17658e-06
3.11172e-05
3.35076e-05
2.90868e-05
1.99871e-05
1.46066e-05
1.39982e-05
2.39426e-05
2.20172e-05
3.52856e-05
3.47068e-05
3.51781e-05
3.40872e-05
1.15238e-05
3.00084e-05
2.86697e-05
2.5155e-05
2.07046e-05
1.65772e-05
2.37665e-06
1.42818e-05
1.39186e-05
1.41803e-05
1.44233e-05
2.32426e-06
2.42731e-06
1.40924e-05
1.70827e-06
1.27992e-06
1.09655e-05
6.90085e-07
1.01592e-06
1.50112e-05
3.23684e-05
3.20658e-06
2.31533e-08
1.29917e-11
2.67935e-13
4.45596e-17
6.06007e-18
2.88051e-18
2.55627e-18
2.44615e-18
2.29367e-18
0
0
0
0
0
0
0
0
0
0
0
0
0
0
0
0
0
0
0
0
0
0
0
0
0
0
0
0
0
0
0
0
0
0
0
0
0
0
0
0
0
0
0
0
0
1.38848e-05
2.17001e-05
4.40347e-05
3.64205e-05
2.40666e-05
4.15879e-05
4.00099e-05
4.10097e-05
3.92102e-05
3.35632e-06
1.53876e-05
6.82795e-07
3.66088e-06
3.02523e-05
3.91037e-05
3.4693e-05
2.75914e-05
2.40965e-05
3.33323e-05
3.49857e-05
3.60089e-05
3.69324e-05
3.64888e-05
1.3936e-05
1.5072e-05
2.69233e-05
1.12885e-05
7.514e-06
5.85355e-06
4.48384e-06
1.5585e-05
1.50492e-05
1.4974e-05
1.54028e-05
3.37714e-06
3.7528e-06
3.77572e-06
1.55622e-05
1.38856e-05
1.63821e-06
1.27319e-06
1.08986e-05
1.45444e-06
1.71785e-05
1.82123e-05
5.90396e-07
1.02482e-09
5.73711e-12
1.33501e-13
3.68512e-17
3.90786e-18
7.29786e-19
6.32709e-20
2.2787e-19
5.50125e-21
0
0
0
0
0
0
0
0
0
0
0
0
0
0
0
0
0
0
0
0
0
0
0
0
0
0
0
0
0
0
0
0
0
0
0
0
0
0
0
0
0
0
0
0
0
4.99082e-05
3.04096e-05
4.00295e-05
4.63256e-05
2.91675e-05
1.83434e-05
4.51859e-05
4.48983e-05
4.14286e-05
2.51275e-05
1.56922e-05
1.14005e-06
1.54057e-06
5.41111e-06
3.59614e-05
4.15225e-05
2.44771e-05
3.46475e-05
2.27226e-05
3.72219e-05
3.80351e-05
2.03448e-05
3.74953e-05
3.41005e-05
3.03485e-05
2.79498e-05
2.63617e-05
2.38868e-05
2.15726e-05
1.88369e-05
1.68222e-05
3.31098e-06
3.51875e-06
1.72134e-05
4.84911e-06
1.86389e-05
1.83194e-05
1.68559e-05
1.52428e-05
1.35035e-05
1.58828e-06
1.34505e-06
1.3645e-05
1.97309e-05
1.90892e-05
2.10443e-07
2.68629e-09
2.56416e-12
5.0388e-14
1.20669e-17
6.13123e-19
0
0
0
0
0
0
0
0
0
0
0
0
0
0
0
0
0
0
0
0
0
0
0
0
0
0
0
0
0
0
0
0
0
0
0
0
0
0
0
0
0
0
0
0
0
0
0
0
0
6.53179e-05
4.68417e-05
4.41356e-05
4.41612e-05
4.61393e-05
4.55177e-05
4.2484e-05
4.36604e-05
4.46232e-05
3.72221e-05
2.95029e-05
2.79878e-05
1.43535e-05
2.3202e-05
3.96413e-05
4.16852e-05
4.13144e-05
4.05113e-05
4.0665e-05
4.03131e-05
4.06173e-05
3.99274e-05
3.87644e-05
3.66788e-05
3.30759e-05
1.60908e-05
2.78035e-05
1.59227e-05
2.45721e-05
2.1089e-05
7.40984e-06
6.45555e-06
1.86416e-05
5.87141e-06
8.03861e-06
2.05035e-05
2.00434e-05
1.85741e-05
4.88824e-06
1.47116e-05
2.30098e-06
1.27416e-05
1.55725e-05
7.75966e-06
1.62308e-05
2.31311e-07
6.02655e-10
1.20008e-12
3.17912e-14
6.83333e-18
4.08449e-25
0
0
0
0
0
0
0
0
0
0
0
0
0
0
0
0
0
0
0
0
0
0
0
0
0
0
0
0
0
0
0
0
0
0
0
0
0
0
0
0
0
0
0
0
0
0
0
0
0
6.93884e-05
5.61022e-05
5.83296e-05
5.17958e-05
4.19582e-05
3.85193e-05
3.6266e-05
3.93361e-05
4.48083e-05
4.27623e-05
3.86096e-05
3.42726e-05
3.06986e-05
3.01273e-05
4.0761e-05
3.99412e-05
4.23207e-05
4.23261e-05
4.21755e-05
2.00237e-05
4.17402e-05
1.88115e-05
4.03728e-05
3.90118e-05
3.67511e-05
3.31108e-05
3.12752e-05
3.00905e-05
2.68639e-05
1.39985e-05
1.12704e-05
2.13784e-05
9.7301e-06
9.60611e-06
2.161e-05
2.18814e-05
1.22182e-05
1.9845e-05
8.48087e-06
1.57317e-05
1.40801e-05
2.87511e-06
1.76922e-05
2.60008e-05
1.11252e-05
8.70443e-08
5.5363e-11
5.87368e-13
7.24738e-15
5.62669e-18
8.06243e-20
0
0
0
0
0
0
0
0
0
0
0
0
0
0
0
0
0
0
0
0
0
0
0
0
0
0
0
0
0
0
0
0
0
0
0
0
0
0
0
0
0
0
0
0
0
0
0
0
0
7.02189e-05
6.12087e-05
6.04096e-05
6.00681e-05
5.42375e-05
4.48523e-05
4.13027e-05
4.02264e-05
3.80558e-05
3.31946e-05
2.66797e-05
2.04692e-05
1.64973e-05
1.56963e-05
1.90383e-05
2.61156e-05
3.84094e-05
2.97136e-05
4.25885e-05
4.15286e-05
2.0513e-05
4.22796e-05
4.13483e-05
4.02819e-05
3.90606e-05
3.71709e-05
1.38727e-05
3.25257e-05
2.87034e-05
1.46152e-05
2.44608e-05
2.34298e-05
2.27447e-05
2.25346e-05
2.27724e-05
2.30229e-05
2.29898e-05
2.15453e-05
1.19519e-05
7.77456e-06
1.51966e-05
1.55402e-05
2.02854e-05
1.07913e-05
6.53834e-06
3.29875e-08
2.12063e-11
2.88203e-13
4.63121e-17
6.40422e-18
2.16823e-18
1.78356e-25
0
0
0
0
0
0
0
0
0
0
0
0
0
0
0
0
0
0
0
0
0
0
0
0
0
0
0
0
0
0
0
0
0
0
0
0
0
0
0
0
0
0
0
0
0
0
0
0
7.04614e-05
6.63498e-05
6.17487e-05
5.97223e-05
5.95558e-05
5.58714e-05
5.14213e-05
4.60863e-05
3.65524e-05
2.65047e-05
1.78084e-05
1.26072e-05
9.52887e-06
8.57083e-06
9.76978e-06
1.43995e-05
2.5111e-05
3.51515e-05
4.07443e-05
2.85958e-05
2.759e-05
4.35091e-05
4.21365e-05
1.43575e-05
1.44835e-05
3.80698e-05
3.64725e-05
3.39588e-05
3.00967e-05
1.14297e-05
1.07678e-05
2.46041e-05
2.38383e-05
2.35948e-05
1.27905e-05
2.41778e-05
2.44911e-05
1.54519e-05
1.28098e-05
1.81729e-05
1.6584e-05
1.70229e-05
2.29396e-05
2.76505e-05
4.26806e-06
1.34908e-08
8.50347e-12
1.34473e-13
3.93169e-17
9.11204e-18
2.67499e-18
1.77827e-18
0
0
0
0
0
0
0
0
0
0
0
0
0
0
0
0
0
0
0
0
0
0
0
0
0
0
0
0
0
0
0
0
0
0
0
0
0
0
0
0
0
0
0
0
0
0
0
0
7.0492e-05
6.83344e-05
6.41406e-05
5.89677e-05
5.5814e-05
5.36233e-05
4.78289e-05
3.69537e-05
2.54154e-05
1.62451e-05
1.08195e-05
7.33878e-06
5.48346e-06
4.85984e-06
5.56446e-06
7.91082e-06
1.35407e-05
2.863e-05
3.49664e-05
4.06571e-05
4.30682e-05
4.37058e-05
4.28468e-05
4.09585e-05
3.99025e-05
3.81509e-05
1.4251e-05
3.40341e-05
3.05694e-05
2.79227e-05
2.60622e-05
8.97394e-06
8.71178e-06
2.38634e-05
2.41938e-05
2.49656e-05
2.54955e-05
2.49114e-05
2.25357e-05
1.95718e-05
1.77091e-05
1.89337e-05
2.56375e-05
2.50589e-05
1.76055e-06
5.54655e-09
3.73883e-12
4.29438e-14
3.11412e-17
5.41336e-18
2.63103e-18
1.8814e-18
0
0
0
0
0
0
0
0
0
0
0
0
0
0
0
0
0
0
0
0
0
0
0
0
0
0
0
0
0
0
0
0
0
0
0
0
0
0
0
0
0
0
0
0
0
0
0
0
7.02483e-05
6.80069e-05
6.40895e-05
5.81858e-05
5.13627e-05
4.12293e-05
3.03832e-05
1.95773e-05
1.27429e-05
8.01454e-06
5.11097e-06
3.58227e-06
2.81761e-06
2.58758e-06
2.9832e-06
4.57524e-06
7.93677e-06
1.49551e-05
2.97467e-05
3.59825e-05
3.1358e-05
4.28018e-05
4.22817e-05
4.10715e-05
3.96594e-05
3.76644e-05
3.55533e-05
3.29686e-05
2.96727e-05
2.73356e-05
2.54626e-05
1.06655e-05
2.39037e-05
2.39663e-05
2.46211e-05
2.58976e-05
2.40992e-05
2.53833e-05
2.40867e-05
2.09481e-05
1.91839e-05
1.00272e-05
2.67721e-05
2.00153e-05
6.46768e-07
2.20035e-09
1.81504e-12
1.36119e-14
1.60591e-17
3.97455e-18
2.53723e-18
8.65224e-19
0
0
0
0
0
0
0
0
0
0
0
0
0
0
0
0
0
0
0
0
0
0
0
0
0
0
0
0
0
0
0
0
0
0
0
0
0
0
0
0
0
0
0
0
0
0
0
0
6.94592e-05
6.6141e-05
6.23279e-05
5.26874e-05
3.97174e-05
2.65924e-05
1.56239e-05
9.83397e-06
5.78653e-06
3.49114e-06
2.19752e-06
1.58424e-06
1.30938e-06
1.2683e-06
1.53408e-06
2.52811e-06
4.85361e-06
9.46167e-06
2.08062e-05
3.0066e-05
3.65395e-05
4.04074e-05
4.05382e-05
3.99237e-05
3.86536e-05
1.85425e-05
1.7334e-05
3.07783e-05
2.8132e-05
2.59703e-05
2.43737e-05
2.36776e-05
2.35454e-05
2.39614e-05
2.51054e-05
2.6924e-05
2.72418e-05
2.62436e-05
2.48616e-05
2.23142e-05
2.07816e-05
2.30487e-05
2.6578e-05
1.00823e-05
2.15352e-07
7.33593e-10
9.61451e-13
8.16207e-17
9.86964e-18
3.25961e-18
1.47439e-18
0
0
0
0
0
0
0
0
0
0
0
0
0
0
0
0
0
0
0
0
0
0
0
0
0
0
0
0
0
0
0
0
0
0
0
0
0
0
0
0
0
0
0
0
0
0
0
0
0
6.7656e-05
6.19366e-05
5.24417e-05
4.15903e-05
2.81882e-05
1.5917e-05
8.686e-06
4.80054e-06
2.68388e-06
1.46222e-06
8.98574e-07
6.33767e-07
5.34857e-07
5.59948e-07
7.44849e-07
1.34984e-06
2.9079e-06
6.21606e-06
1.25062e-05
2.44948e-05
3.0177e-05
3.55946e-05
2.87239e-05
3.74924e-05
3.62036e-05
3.34687e-05
3.04867e-05
2.80721e-05
2.5912e-05
2.40661e-05
2.30016e-05
2.27398e-05
2.30487e-05
2.21285e-05
2.62545e-05
2.76653e-05
2.76103e-05
2.69378e-05
2.58543e-05
2.36175e-05
2.24714e-05
2.52343e-05
2.44883e-05
8.29513e-06
6.84637e-08
9.44536e-11
5.30008e-13
5.158e-17
7.06756e-18
2.72089e-18
1.18062e-18
0
0
0
0
0
0
0
0
0
0
0
0
0
0
0
0
0
0
0
0
0
0
0
0
0
0
0
0
0
0
0
0
0
0
0
0
0
0
0
0
0
0
0
0
0
0
0
0
0
6.45095e-05
4.87855e-05
3.76641e-05
2.80054e-05
1.80823e-05
9.3135e-06
4.68945e-06
2.45126e-06
1.22088e-06
6.21378e-07
3.63651e-07
2.39479e-07
1.84727e-07
2.2721e-07
3.778e-07
7.33103e-07
1.68076e-06
4.00659e-06
8.42914e-06
1.75738e-05
2.46892e-05
2.91114e-05
3.23368e-05
3.30784e-05
2.55831e-05
2.91071e-05
2.66462e-05
1.97058e-05
2.32516e-05
2.18467e-05
2.14513e-05
2.16026e-05
2.23993e-05
2.38972e-05
2.61807e-05
2.78363e-05
2.75009e-05
2.75176e-05
2.67808e-05
2.51179e-05
2.44954e-05
2.6247e-05
2.04397e-05
2.58295e-06
2.66049e-08
1.54354e-11
2.72411e-13
3.28577e-17
5.33687e-18
1.98688e-18
3.97853e-29
0
0
0
0
0
0
0
0
0
0
0
0
0
0
0
0
0
0
0
0
0
0
0
0
0
0
0
0
0
0
0
0
0
0
0
0
0
0
0
0
0
0
0
0
0
0
0
0
0
5.4097e-05
3.09334e-05
2.22883e-05
1.61268e-05
9.7653e-06
4.9858e-06
2.52314e-06
1.25333e-06
5.57502e-07
2.82056e-07
1.5629e-07
8.82257e-08
6.9478e-08
1.08449e-07
2.02768e-07
4.18987e-07
9.79985e-07
2.47889e-06
5.7146e-06
1.13418e-05
1.04074e-05
2.32754e-05
2.58711e-05
2.72076e-05
2.34429e-05
2.47784e-05
2.2768e-05
2.17392e-05
2.02861e-05
1.95161e-05
1.98121e-05
2.04281e-05
2.182e-05
2.38194e-05
2.61682e-05
2.72204e-05
2.71667e-05
2.80668e-05
2.76482e-05
2.59557e-05
1.04318e-05
2.61196e-05
1.51668e-05
1.96101e-06
9.71453e-09
6.24821e-12
1.27723e-13
2.08944e-17
3.99643e-18
1.6326e-18
0
0
0
0
0
0
0
0
0
0
0
0
0
0
0
0
0
0
0
0
0
0
0
0
0
0
0
0
0
0
0
0
0
0
0
0
0
0
0
0
0
0
0
0
0
0
0
0
0
0
3.60562e-05
1.48749e-05
9.45419e-06
6.92099e-06
4.40237e-06
2.53406e-06
1.34796e-06
6.51581e-07
2.74696e-07
1.3627e-07
7.55916e-08
3.30576e-08
3.43666e-08
5.70785e-08
1.13989e-07
2.49053e-07
5.89813e-07
1.4902e-06
3.68998e-06
7.61132e-06
1.42007e-05
1.95657e-05
2.0547e-05
2.16728e-05
2.17568e-05
2.06067e-05
1.88431e-05
1.82014e-05
1.74108e-05
1.71864e-05
1.81439e-05
1.92197e-05
2.13349e-05
2.35824e-05
2.50645e-05
2.58755e-05
2.68911e-05
2.8665e-05
2.83049e-05
2.65979e-05
2.61902e-05
2.46549e-05
9.899e-06
6.97861e-07
3.12914e-09
2.5873e-12
4.87907e-14
1.30916e-17
3.11267e-18
1.00893e-18
0
0
0
0
0
0
0
0
0
0
0
0
0
0
0
0
0
0
0
0
0
0
0
0
0
0
0
0
0
0
0
0
0
0
0
0
0
0
0
0
0
0
0
0
0
0
0
0
0
0
1.52502e-05
4.37315e-06
2.89438e-06
2.39552e-06
1.78478e-06
1.12435e-06
6.34911e-07
3.26702e-07
1.31814e-07
7.39314e-08
4.16959e-08
1.45246e-08
1.94753e-08
3.25192e-08
6.58061e-08
1.5145e-07
3.62674e-07
9.08646e-07
2.27573e-06
4.90956e-06
8.62473e-06
1.42314e-05
1.65939e-05
1.69096e-05
1.73865e-05
1.56668e-05
1.49009e-05
1.5015e-05
1.46682e-05
1.49128e-05
1.39128e-05
1.80327e-05
2.09715e-05
2.25652e-05
2.32344e-05
2.47412e-05
2.69012e-05
2.94345e-05
2.85983e-05
2.69854e-05
2.58188e-05
2.12643e-05
5.34977e-06
1.10876e-07
7.48585e-10
1.17053e-12
6.6914e-15
9.27785e-18
2.2255e-18
1.79568e-19
1.8747e-21
0
0
0
0
0
0
0
0
0
0
0
0
0
0
0
0
0
0
0
0
0
0
0
0
0
0
0
0
0
0
0
0
0
0
0
0
0
0
0
0
0
0
0
0
0
0
0
0
0
2.26071e-07
2.46756e-07
2.77519e-07
3.10696e-07
3.1096e-07
2.626e-07
1.87777e-07
1.11492e-07
5.00489e-08
3.64401e-08
2.27481e-08
7.80286e-09
1.10737e-08
1.81321e-08
3.59698e-08
8.08333e-08
1.88078e-07
4.41985e-07
1.02667e-06
2.1773e-06
3.9579e-06
6.28344e-06
9.45158e-06
1.12948e-05
1.13812e-05
1.11073e-05
1.07326e-05
1.05657e-05
1.06406e-05
1.12648e-05
1.30784e-05
1.62847e-05
1.69869e-05
1.77035e-05
1.96074e-05
2.24169e-05
2.67795e-05
3.01712e-05
2.82479e-05
2.62667e-05
2.31058e-05
1.32776e-05
1.07393e-06
2.08576e-08
1.53824e-11
2.79441e-13
3.0209e-17
4.3923e-18
1.43756e-21
0
0
0
0
0
0
0
0
0
0
0
0
0
0
0
0
0
0
0
0
0
0
0
0
0
0
0
0
0
0
0
0
0
0
0
0
0
0
0
0
0
0
0
0
0
0
0
0
0
0
0
1.69709e-08
1.91882e-08
2.00776e-08
2.23646e-08
3.10595e-08
3.94333e-08
3.88978e-08
2.78232e-08
2.11803e-08
1.88234e-08
1.46885e-08
8.15466e-09
6.10439e-09
1.03128e-08
1.92878e-08
4.03316e-08
8.90245e-08
1.90485e-07
3.94591e-07
7.73085e-07
1.39013e-06
2.28057e-06
3.48102e-06
4.86137e-06
6.03673e-06
6.58387e-06
6.81965e-06
6.87319e-06
6.83108e-06
7.04971e-06
8.22738e-06
1.04926e-05
1.08601e-05
1.27112e-05
1.55959e-05
2.07385e-05
2.709e-05
2.89042e-05
2.60607e-05
2.24094e-05
1.6083e-05
3.38063e-06
1.32914e-07
2.22062e-09
2.17523e-12
5.91187e-14
1.09627e-17
1.08836e-18
0
0
0
0
0
0
0
0
0
0
0
0
0
0
0
0
0
0
0
0
0
0
0
0
0
0
0
0
0
0
0
0
0
0
0
0
0
0
0
0
0
0
0
0
0
0
0
0
0
0
0
0
1.43855e-09
2.51954e-09
2.12579e-09
2.71345e-09
4.2273e-09
7.18076e-09
1.01163e-08
9.96747e-09
1.12442e-08
1.14638e-08
1.01695e-08
7.03503e-09
3.53751e-09
5.92203e-09
1.07976e-08
2.09168e-08
4.19542e-08
8.3265e-08
1.54815e-07
2.76951e-07
4.47866e-07
7.21678e-07
1.11293e-06
1.65814e-06
2.22799e-06
2.74783e-06
3.20095e-06
3.39911e-06
3.54056e-06
3.68198e-06
4.3296e-06
5.2583e-06
7.33867e-06
9.2563e-06
1.26231e-05
1.91126e-05
2.66218e-05
2.47122e-05
2.10274e-05
1.5453e-05
7.44164e-06
9.2575e-07
3.24415e-08
2.56453e-11
4.313e-13
3.94439e-15
5.29738e-18
4.61965e-26
0
0
0
0
0
0
0
0
0
0
0
0
0
0
0
0
0
0
0
0
0
0
0
0
0
0
0
0
0
0
0
0
0
0
0
0
0
0
0
0
0
0
0
0
0
0
0
0
0
0
0
0
1.91339e-10
5.19575e-10
7.54911e-10
1.21514e-09
2.65234e-09
5.07306e-09
7.2446e-09
6.9613e-09
7.18438e-09
7.51738e-09
6.6996e-09
4.58586e-09
2.10825e-09
3.3437e-09
5.95574e-09
1.07621e-08
1.98182e-08
3.55077e-08
6.0538e-08
9.75378e-08
1.48285e-07
2.23126e-07
3.23223e-07
4.80678e-07
6.92317e-07
9.74117e-07
1.19957e-06
1.4222e-06
1.77318e-06
2.12443e-06
2.72198e-06
3.09964e-06
5.20285e-06
7.16893e-06
1.09873e-05
1.79506e-05
2.18329e-05
1.865e-05
1.39088e-05
7.17765e-06
1.64368e-06
1.25453e-07
3.00955e-09
2.84027e-12
7.77945e-14
1.48534e-17
2.70233e-18
0
0
0
0
0
0
0
0
0
0
0
0
0
0
0
0
0
0
0
0
0
0
0
0
0
0
0
0
0
0
0
0
0
0
0
0
0
0
0
0
0
0
0
0
0
0
0
0
0
0
0
0
0
0
2.34345e-10
7.98176e-10
2.04175e-09
4.04985e-09
6.58812e-09
8.62762e-09
8.32595e-09
5.11216e-09
5.07879e-09
4.02994e-09
1.81377e-09
1.2605e-09
1.91945e-09
3.14474e-09
5.50194e-09
9.36325e-09
1.55765e-08
2.47661e-08
3.75694e-08
5.5438e-08
7.9524e-08
1.14046e-07
1.68784e-07
2.46901e-07
3.51965e-07
4.67501e-07
6.36152e-07
9.17221e-07
1.25372e-06
1.75395e-06
2.15378e-06
4.15126e-06
6.20768e-06
1.0306e-05
1.66316e-05
1.49447e-05
1.16046e-05
6.76062e-06
1.61662e-06
1.45321e-07
1.13919e-08
2.02489e-11
3.88307e-13
3.77341e-15
5.88153e-18
3.45443e-21
0
0
0
0
0
0
0
0
0
0
0
0
0
0
0
0
0
0
0
0
0
0
0
0
0
0
0
0
0
0
0
0
0
0
0
0
0
0
0
0
0
0
0
0
0
0
0
0
0
0
0
0
0
0
1.7395e-10
1.21022e-09
3.19698e-09
5.99e-09
8.26325e-09
8.82716e-09
8.64647e-09
4.36385e-09
3.32907e-09
1.99832e-09
6.20686e-10
9.09933e-10
1.32806e-09
2.0217e-09
3.20913e-09
4.94862e-09
7.46753e-09
1.11073e-08
1.57765e-08
2.20856e-08
3.04833e-08
4.1696e-08
5.91589e-08
8.25672e-08
1.18661e-07
1.57795e-07
2.71654e-07
4.88953e-07
8.1338e-07
1.2788e-06
1.99929e-06
4.07877e-06
6.39205e-06
9.85677e-06
1.11376e-05
8.56758e-06
5.0826e-06
2.10288e-06
1.36925e-07
1.08536e-08
7.16715e-11
1.37247e-12
3.70747e-14
1.10103e-17
1.18418e-18
0
0
0
0
0
0
0
0
0
0
0
0
0
0
0
0
0
0
0
0
0
0
0
0
0
0
0
0
0
0
0
0
0
0
0
0
0
0
0
0
0
0
0
0
0
0
0
0
0
0
0
0
0
0
0
5.30289e-11
1.10035e-09
2.80149e-09
5.40724e-09
7.49948e-09
8.24778e-09
6.38524e-09
3.6049e-09
1.96744e-09
6.63706e-10
4.83671e-10
6.284e-10
8.03884e-10
1.04296e-09
1.37755e-09
1.85912e-09
2.54382e-09
3.65251e-09
5.25184e-09
7.29802e-09
9.73145e-09
1.21243e-08
1.39011e-08
1.53519e-08
3.2485e-08
6.35152e-08
1.46334e-07
3.34503e-07
6.42876e-07
1.13029e-06
2.1784e-06
3.44334e-06
4.67601e-06
6.195e-06
6.19017e-06
3.56721e-06
1.19618e-06
2.95101e-07
9.96808e-09
8.73102e-11
3.37431e-12
1.06021e-13
2.38032e-17
4.72052e-18
0
0
0
0
0
0
0
0
0
0
0
0
0
0
0
0
0
0
0
0
0
0
0
0
0
0
0
0
0
0
0
0
0
0
0
0
0
0
0
0
0
0
0
0
0
0
0
0
0
0
0
0
0
0
0
0
0
3.36485e-10
9.25338e-10
2.15001e-09
3.58811e-09
4.20669e-09
3.25347e-09
1.83804e-09
1.01292e-09
2.38294e-10
3.00883e-10
3.08719e-10
2.58166e-10
1.00124e-10
1.39761e-10
3.45573e-10
7.67787e-10
1.50103e-09
2.57827e-09
3.95549e-09
5.44155e-09
6.77392e-09
8.04799e-09
1.26453e-08
2.75255e-08
5.51356e-08
1.10138e-07
3.35832e-07
6.92988e-07
1.0764e-06
1.45243e-06
1.84388e-06
2.46807e-06
3.14186e-06
2.6378e-06
8.9199e-07
9.85907e-08
2.51581e-08
9.1297e-11
4.04955e-12
1.77182e-13
5.00312e-17
8.37093e-18
2.39718e-18
0
0
0
0
0
0
0
0
0
0
0
0
0
0
0
0
0
0
0
0
0
0
0
0
0
0
0
0
0
0
0
0
0
0
0
0
0
0
0
0
0
0
0
0
0
0
0
0
0
0
0
0
0
0
0
0
0
0
4.07918e-10
9.27847e-10
1.41247e-09
2.20657e-09
2.38499e-09
9.47688e-10
3.7862e-10
1.2645e-10
1.3137e-10
4.72831e-11
1.1922e-11
3.73302e-11
1.05422e-10
2.7197e-10
6.25826e-10
1.25181e-09
2.24571e-09
3.49655e-09
4.91222e-09
6.06048e-09
7.00433e-09
1.11857e-08
2.45896e-08
5.18979e-08
1.71939e-07
4.1671e-07
6.34851e-07
7.21566e-07
7.58516e-07
8.51061e-07
1.01539e-06
1.19146e-06
7.28377e-07
1.06812e-07
9.41172e-09
6.89058e-10
5.22565e-12
2.04683e-13
7.98262e-17
1.1357e-17
3.60211e-18
0
0
0
0
0
0
0
0
0
0
0
0
0
0
0
0
0
0
0
0
0
0
0
0
0
0
0
0
0
0
0
0
0
0
0
0
0
0
0
0
0
0
0
0
0
0
0
0
0
0
0
0
0
0
0
0
0
0
0
1.15909e-10
3.13023e-10
7.81997e-10
1.37086e-09
1.55562e-09
5.3705e-10
1.03611e-10
5.22176e-11
2.65489e-11
2.52044e-12
7.68116e-12
2.59186e-11
7.84532e-11
2.14615e-10
5.13489e-10
1.08697e-09
2.02283e-09
3.25134e-09
4.60589e-09
5.62539e-09
6.31332e-09
9.68891e-09
2.74421e-08
1.11895e-07
2.6009e-07
3.72932e-07
3.74323e-07
3.19833e-07
2.7806e-07
2.34628e-07
2.4979e-07
2.66409e-07
1.2968e-07
1.47758e-08
1.20884e-10
1.14359e-11
3.20977e-13
1.01304e-16
1.49349e-17
4.15292e-18
1.33984e-21
0
0
0
0
0
0
0
0
0
0
0
0
0
0
0
0
0
0
0
0
0
0
0
0
0
0
0
0
0
0
0
0
0
0
0
0
0
0
0
0
0
0
0
0
0
0
0
0
0
0
0
0
0
0
0
0
0
0
0
0
1.03789e-10
2.94129e-10
7.2659e-10
1.05335e-09
3.34023e-10
9.28734e-12
1.50943e-11
4.84595e-13
1.46047e-12
4.64031e-12
1.73118e-11
5.62382e-11
1.62043e-10
4.12994e-10
9.35264e-10
1.7913e-09
3.00856e-09
4.25883e-09
5.24385e-09
8.31235e-09
2.46969e-08
6.29006e-08
1.26122e-07
1.84501e-07
1.89454e-07
1.48346e-07
1.03001e-07
6.38439e-08
3.82285e-08
4.18058e-08
4.07547e-08
2.14004e-08
1.14971e-09
8.58295e-12
5.54693e-13
1.49923e-16
1.79861e-17
5.05297e-18
5.34753e-21
0
0
0
0
0
0
0
0
0
0
0
0
0
0
0
0
0
0
0
0
0
0
0
0
0
0
0
0
0
0
0
0
0
0
0
0
0
0
0
0
0
0
0
0
0
0
0
0
0
0
0
0
0
0
0
0
0
0
0
0
0
0
1.10319e-10
2.94157e-10
5.96525e-10
2.22889e-10
5.626e-12
1.90362e-12
2.24689e-13
8.00587e-13
2.78397e-12
1.06475e-11
3.73681e-11
1.15728e-10
3.19297e-10
7.43807e-10
1.50772e-09
2.57553e-09
3.76545e-09
7.62945e-09
1.73728e-08
3.49579e-08
6.05584e-08
8.53578e-08
9.06606e-08
7.30726e-08
4.7323e-08
2.98302e-08
1.9671e-08
7.778e-09
5.64829e-09
5.61916e-09
2.04279e-09
1.73111e-11
7.01373e-13
1.45093e-14
2.4488e-17
6.76263e-18
1.129e-18
0
0
0
0
0
0
0
0
0
0
0
0
0
0
0
0
0
0
0
0
0
0
0
0
0
0
0
0
0
0
0
0
0
0
0
0
0
0
0
0
0
0
0
0
0
0
0
0
0
0
0
0
0
0
0
0
0
0
0
0
0
0
0
0
0
2.93551e-10
1.48953e-10
3.00879e-12
2.19655e-14
8.4862e-14
3.97107e-13
1.52424e-12
5.93517e-12
2.29667e-11
7.49024e-11
2.18106e-10
5.44817e-10
1.12751e-09
1.98705e-09
4.54974e-09