/*--------------------------------*- C++ -*----------------------------------*\
  =========                 |
  \\      /  F ield         | OpenFOAM: The Open Source CFD Toolbox
   \\    /   O peration     | Website:  https://openfoam.org
    \\  /    A nd           | Version:  6
     \\/     M anipulation  |
\*---------------------------------------------------------------------------*/
FoamFile
{
    version     2.0;
    format      ascii;
    class       volVectorField;
    location    "0.005";
    object      U;
}
// * * * * * * * * * * * * * * * * * * * * * * * * * * * * * * * * * * * * * //

dimensions      [0 1 -1 0 0 0 0];

internalField   nonuniform List<vector> 
8000
(
(66.7454 0.275133 4.2911e-07)
(66.5103 0.164717 5.35498e-07)
(66.9012 0.0717865 4.40869e-07)
(66.9051 0.0188615 3.14284e-07)
(66.5082 0.0649306 2.72882e-07)
(66.2949 0.0639564 2.38391e-07)
(65.894 0.194914 5.26547e-08)
(66.1179 0.304859 -2.9683e-07)
(66.4646 0.0360782 -6.61657e-07)
(66.3733 -0.0304127 5.31897e-07)
(67.1158 0.113116 2.03609e-06)
(68.6476 0.0996412 2.25893e-06)
(67.9256 1.27557 -7.14919e-07)
(66.2948 0.266169 -4.9586e-05)
(67.67 0.107288 -0.000298699)
(70.7089 0.226829 -0.000213715)
(69.2177 0.244968 0.000117391)
(63.9117 1.01498 0.000456605)
(67.5427 -1.1928 0.00103435)
(71.7328 -0.699796 0.00249395)
(66.1934 -0.470705 0.00645969)
(62.7182 0.473595 0.00862407)
(67.716 4.0519 -0.00304489)
(70.8497 1.35797 0.00657202)
(71.8408 0.241722 0.0078562)
(73.4697 0.333446 0.0043331)
(73.6109 -0.0389911 0.00180834)
(74.2852 0.279268 0.00138218)
(71.3313 0.6513 0.00149456)
(68.5965 -0.374579 0.00124962)
(68.732 -0.195812 0.000726777)
(71.4542 -0.014755 0.000310432)
(71.9929 -0.0761785 0.000494669)
(68.7833 -0.284082 0.00161777)
(69.3938 -0.240921 0.00316214)
(70.3918 -0.117734 0.0029625)
(70.8598 0.0411152 0.00176723)
(68.7438 -0.0958847 0.000567451)
(64.7227 -0.140646 -0.000283352)
(63.3012 -0.102871 -0.00061738)
(61.0645 0.0884868 -0.000397004)
(59.2353 -0.408668 -0.000222053)
(57.0399 -0.0641171 -0.000126043)
(49.8969 0.16935 -1.199e-05)
(31.6732 0.295507 -0.000198452)
(9.05794 0.38133 0.00170515)
(26.2831 -0.326341 -0.000158632)
(39.1776 0.946603 -0.00076471)
(29.9343 0.303942 -0.000403097)
(16.7178 0.41072 -0.000101047)
(9.3236 0.137112 -1.77383e-05)
(7.32894 0.041729 -1.19223e-06)
(6.75031 0.0214303 -1.06718e-07)
(6.08449 0.012882 -2.70523e-08)
(5.47684 0.0089114 -3.66793e-09)
(4.96995 0.00641188 -3.20999e-10)
(4.49072 0.00522321 -2.26518e-11)
(4.00232 0.00381578 -2.43007e-12)
(3.48919 0.002675 -1.12512e-12)
(2.96692 0.00175985 -1.71093e-12)
(2.45535 0.00104949 -1.9179e-11)
(1.96351 0.000501543 -1.32112e-11)
(1.49324 0.00013107 8.26188e-12)
(1.04734 -9.3233e-05 -1.40994e-11)
(0.631258 -0.00018078 1.59668e-11)
(0.246157 -0.000195512 6.34676e-12)
(-0.11362 -0.000188892 7.0003e-12)
(-0.459891 -0.000173916 2.53216e-12)
(-0.8057 -0.00015036 -1.19323e-12)
(-1.15247 -0.000119399 3.05743e-11)
(-1.49192 -4.56097e-05 1.08293e-11)
(-1.81081 3.8806e-05 2.41745e-12)
(-2.09686 0.000164998 2.84317e-12)
(-2.34333 0.00028393 7.05531e-12)
(-2.5499 0.000418682 -3.8485e-12)
(-2.71968 0.000540224 4.65466e-12)
(-2.85709 0.000649753 -1.05862e-12)
(-2.96682 0.000734256 -3.74426e-12)
(-3.05265 0.00079495 8.9468e-13)
(-3.1186 0.000824252 7.3464e-12)
(-3.16788 0.000819189 -1.77393e-12)
(-3.20279 0.000787367 -1.78616e-11)
(-3.2272 0.00071786 -1.68407e-11)
(-3.24365 0.00061807 -2.87676e-12)
(-3.25606 0.000483239 -1.80251e-12)
(-3.26702 0.000317387 -1.19455e-11)
(-3.27927 0.000130418 1.69081e-11)
(-3.29483 -6.54551e-05 1.2836e-11)
(-3.31572 -0.000258489 -9.4188e-12)
(-3.34324 -0.000446157 -1.8745e-11)
(-3.37765 -0.000614066 -9.8285e-12)
(-3.41931 -0.000751903 -7.46108e-13)
(-3.46709 -0.00085267 5.61388e-13)
(-3.51992 -0.000909391 -2.59265e-11)
(-3.57558 -0.000919366 1.02814e-11)
(-3.63188 -0.000872511 2.44748e-11)
(-3.6851 -0.000769158 1.63263e-11)
(-3.73118 -0.00058233 1.01237e-12)
(-3.76836 -0.000264484 7.67187e-12)
(-3.80314 -1.75745e-06 3.49706e-12)
(66.5437 0.543238 1.84103e-06)
(66.3469 0.356148 2.00297e-06)
(66.773 0.162925 1.58885e-06)
(66.8024 0.0443445 1.06207e-06)
(66.4111 0.169461 8.2113e-07)
(66.2032 0.153392 6.14775e-07)
(65.8009 0.465657 -3.97387e-08)
(66.0014 0.711068 -1.12722e-06)
(66.3389 0.0472548 -3.62852e-06)
(66.2649 -0.0544068 3.2348e-06)
(67.0231 0.250705 1.04457e-05)
(68.6823 0.233938 1.23329e-05)
(67.8555 2.75696 4.72381e-06)
(66.0584 0.667222 -0.00013993)
(67.5494 0.286384 -0.00191336)
(70.7112 0.481497 -0.00111903)
(69.242 0.476481 0.000279714)
(63.5621 2.18167 0.00117895)
(67.2603 -2.61882 0.00260042)
(71.795 -1.5628 0.00585025)
(66.1647 -1.00661 0.0154847)
(62.0656 0.854181 0.0194792)
(68.6556 10.3444 -0.0806419)
(70.5252 3.31193 0.00225229)
(71.793 0.394715 0.0162842)
(73.3839 0.816705 0.00950076)
(73.5296 -0.0603788 0.00320011)
(74.382 0.581946 0.00319985)
(71.242 1.56472 0.00409265)
(68.3965 -0.921599 0.00347059)
(68.6435 -0.44146 0.00204027)
(71.4774 -0.0963111 0.000905315)
(72.0417 -0.141023 0.00145537)
(68.6591 -0.674528 0.00472765)
(69.2393 -0.633819 0.00962209)
(70.2862 -0.270053 0.00894329)
(70.9178 0.0619243 0.00520285)
(68.6748 -0.191408 0.00163672)
(64.3887 -0.107782 -0.000850466)
(62.9666 -0.27779 -0.00183569)
(60.7912 -0.228843 -0.0011728)
(59.2265 -1.05751 -0.000667307)
(57.4088 -0.140874 -0.000394824)
(50.3058 0.450793 -4.36385e-05)
(31.5511 0.791199 -0.000530839)
(8.38298 0.972884 0.00533204)
(25.3564 -0.728506 -0.00296292)
(37.0394 2.34322 -0.0017901)
(27.3926 0.65417 -0.00101711)
(15.616 0.953511 1.49116e-05)
(9.26011 0.363726 4.52661e-05)
(7.41955 0.115332 5.32311e-06)
(6.83453 0.0572909 -1.42232e-07)
(6.15734 0.0340756 -8.85507e-08)
(5.54427 0.0232201 -1.22029e-08)
(5.03337 0.0166882 -1.07652e-09)
(4.55015 0.0136227 -7.57087e-11)
(4.05693 0.0100381 -7.4633e-12)
(3.53795 0.00710155 -3.20683e-12)
(3.00906 0.00470627 -4.85855e-12)
(2.49068 0.0028563 -5.42441e-11)
(1.99222 0.00145361 -3.71951e-11)
(1.51573 0.000501174 2.47761e-11)
(1.06411 -9.03644e-05 1.27553e-11)
(0.642886 -0.000356363 4.65359e-11)
(0.253229 -0.000433471 1.81411e-11)
(-0.110791 -0.000415057 1.98503e-11)
(-0.461328 -0.000354642 7.21133e-12)
(-0.811484 -0.000259957 -3.82647e-12)
(-1.16279 -0.000154266 4.25804e-11)
(-1.50688 3.02281e-05 3.07904e-11)
(-1.82992 0.000231247 6.74214e-12)
(-2.11936 0.000521785 8.3391e-12)
(-2.36836 0.000807129 2.03381e-11)
(-2.57654 0.00113321 -1.09836e-11)
(-2.74717 0.00143095 1.33505e-11)
(-2.88471 0.00170001 -3.00856e-12)
(-2.99396 0.00190836 -1.08173e-11)
(-3.07895 0.00205687 2.42584e-12)
(-3.14373 0.0021239 2.10831e-11)
(-3.19152 0.00210306 -4.65315e-12)
(-3.22493 0.002012 -5.11217e-11)
(-3.24769 0.00181993 -4.87422e-11)
(-3.26252 0.00155715 -8.16599e-12)
(-3.2734 0.00119656 -4.71077e-12)
(-3.283 0.000763972 -3.38351e-11)
(-3.29419 0.000271183 4.82567e-11)
(-3.30901 -0.000238385 3.73618e-11)
(-3.32948 -0.000745922 -2.66574e-11)
(-3.3569 -0.00122933 -5.29527e-11)
(-3.39161 -0.00166547 -2.81584e-11)
(-3.43391 -0.00201586 -2.0175e-12)
(-3.48265 -0.0022729 2.56596e-12)
(-3.53672 -0.00240874 -1.12929e-11)
(-3.59381 -0.00242319 2.89324e-11)
(-3.65163 -0.00228723 6.96136e-11)
(-3.70637 -0.00200573 4.69916e-11)
(-3.75377 -0.00151616 2.63161e-12)
(-3.79183 -0.00072269 2.19837e-11)
(-3.82526 -1.75444e-05 1.00303e-11)
(66.27 0.807997 5.83899e-06)
(66.0968 0.536784 7.14373e-06)
(66.5472 0.26039 3.49852e-06)
(66.6139 0.0569819 2.28321e-06)
(66.232 0.293756 1.48525e-06)
(66.0417 0.266551 5.70651e-07)
(65.6638 0.757243 -1.08547e-06)
(65.777 1.19614 -2.23858e-06)
(66.1048 -0.0244203 -1.93046e-05)
(66.0942 -0.108132 3.05651e-05)
(66.8591 0.358808 6.14068e-05)
(68.6981 0.317209 7.27317e-05)
(67.7101 2.67922 0.000107994)
(65.6781 1.46607 -0.000184828)
(67.3345 0.738341 -0.0183056)
(70.7314 0.746535 -0.00699632)
(69.1761 0.261133 4.18576e-06)
(63.0463 1.86389 0.000589552)
(66.7679 -2.5667 0.002758)
(71.7881 -2.43952 0.00584366)
(66.2689 -1.82473 0.0153899)
(63.622 2.14685 0.026966)
(67.6547 13.0313 0.00691093)
(69.2063 4.89472 0.0177552)
(70.8171 0.763582 0.0175314)
(72.9496 1.11801 0.00682346)
(72.5751 0.504259 -0.010421)
(74.2371 1.0279 0.00111461)
(70.9389 2.68696 0.00671154)
(68.0894 -1.57104 0.00539201)
(68.566 -0.6537 0.00333573)
(71.399 -0.191263 0.00169738)
(71.9023 -0.206755 0.00271811)
(68.4735 -1.09721 0.0086005)
(69.0629 -1.08394 0.0198962)
(70.1207 -0.433548 0.0180616)
(70.7586 0.0932263 0.0095006)
(68.5141 -0.28034 0.0026533)
(64.1483 -0.199626 -0.00176594)
(62.6612 -0.488425 -0.00354043)
(60.46 -0.281228 -0.00216952)
(58.9764 -1.72949 -0.00127987)
(57.3632 -0.24014 -0.000868004)
(50.4138 0.683689 -0.000111932)
(31.9242 1.20441 -0.000720502)
(8.6942 1.4136 0.00966602)
(24.4171 -0.81827 -0.0340288)
(32.8119 3.6751 -0.00310154)
(22.14 0.696591 -0.00373612)
(14.3886 1.4167 -0.00120815)
(8.88922 0.563795 -0.000134999)
(7.39756 0.172997 -1.36629e-05)
(6.88053 0.090406 -1.84115e-06)
(6.20435 0.0537861 -2.74276e-07)
(5.58643 0.0371546 -3.2844e-08)
(5.0706 0.0269007 -2.92682e-09)
(4.58244 0.0221883 -2.0217e-10)
(4.08456 0.0165462 -1.60692e-11)
(3.56141 0.0118562 -5.36192e-12)
(3.02851 0.00799538 -8.00693e-12)
(2.50623 0.00500084 -5.60288e-11)
(2.00395 0.00273742 -2.75086e-11)
(1.52375 0.00117567 1.03675e-11)
(1.06859 0.00017857 3.4639e-11)
(0.643945 -0.000302853 4.68805e-11)
(0.250942 -0.000457983 3.06129e-11)
(-0.116335 -0.000402454 3.19212e-11)
(-0.470162 -0.000274972 1.20389e-11)
(-0.823502 -0.000100108 -8.16792e-12)
(-1.17783 7.31657e-05 2.82348e-11)
(-1.52471 0.000312463 5.08874e-11)
(-1.85013 0.000581683 1.03311e-11)
(-2.1415 0.000969009 -1.70877e-11)
(-2.39202 0.00137651 5.29048e-12)
(-2.60132 0.00185117 -1.88221e-11)
(-2.77271 0.00229081 2.28854e-11)
(-2.91065 0.00268817 -4.91959e-12)
(-3.01997 0.00299805 -1.93949e-11)
(-3.10477 0.00321757 3.15048e-12)
(-3.16913 0.00330711 3.62839e-11)
(-3.21627 0.00326766 -5.07609e-12)
(-3.24894 0.00311406 -3.12399e-11)
(-3.27082 0.00280432 -2.98219e-11)
(-3.28473 0.00239529 -1.34609e-11)
(-3.29468 0.00182642 -5.08951e-12)
(-3.30343 0.00115992 -1.33047e-11)
(-3.31392 0.00039065 2.84653e-11)
(-3.32824 -0.000396389 1.99655e-11)
(-3.34837 -0.00119139 -4.29965e-11)
(-3.37565 -0.00193441 -3.88688e-11)
(-3.41042 -0.00261404 -4.78768e-11)
(-3.45297 -0.00315177 -2.76857e-12)
(-3.50215 -0.00355256 5.93767e-12)
(-3.55676 -0.00375806 -1.69067e-12)
(-3.61448 -0.00377896 4.60506e-11)
(-3.67293 -0.00356328 7.03857e-11)
(-3.72828 -0.00312253 3.60555e-11)
(-3.77615 -0.00237042 2.73198e-12)
(-3.8143 -0.00120396 3.69774e-11)
(-3.84508 -8.63659e-05 1.71835e-11)
(65.965 1.03102 2.00434e-06)
(65.7788 0.691196 2.90578e-06)
(66.2618 0.339258 1.74021e-06)
(66.3766 0.0384579 2.47142e-06)
(66.0112 0.464196 2.35125e-06)
(65.8329 0.406689 -7.93335e-07)
(65.4912 1.0153 -3.98601e-06)
(65.4485 1.61658 2.70349e-06)
(65.6867 0.0343762 2.40033e-05)
(65.8531 -0.207252 0.000356855)
(66.6165 0.61719 0.000338069)
(68.5625 0.28992 0.000345043)
(67.512 -2.64149 0.0014166)
(65.0907 2.11245 0.000681395)
(66.9359 1.02902 -0.00120507)
(70.1856 0.854621 0.000123828)
(68.8553 -0.687102 0.00230296)
(62.1071 -3.30276 -0.00901259)
(66.2441 3.06125 -0.00200467)
(71.6818 -3.07553 0.00399108)
(66.4171 -2.09913 0.0165149)
(64.2461 4.53893 0.0593664)
(67.2298 12.9244 0.0279708)
(68.0059 5.76352 0.0198802)
(69.9598 1.31067 0.0139322)
(72.3372 1.52944 0.0105882)
(72.9861 0.846416 0.0119189)
(74.2468 1.60145 0.0116059)
(70.2985 3.95199 0.0158288)
(67.9362 -1.92322 0.00176505)
(68.4292 -0.712073 0.00447403)
(71.208 -0.365856 0.00324177)
(71.6144 -0.276153 0.00430853)
(68.1606 -1.62388 0.0123189)
(68.8003 -1.47737 0.0348981)
(69.8308 -0.672311 0.0335646)
(70.4092 0.185231 0.0143947)
(68.1525 -0.41133 0.00310818)
(63.797 -0.186503 -0.00330603)
(62.3081 -0.71665 -0.00608221)
(60.0121 -0.0265002 -0.00344524)
(58.5557 -2.46226 -0.0020004)
(57.1836 -0.415808 -0.00177455)
(50.3387 0.893342 -0.000187021)
(32.185 1.35943 -0.000700377)
(8.60049 2.03124 0.00512809)
(22.9312 0.801344 -0.00128147)
(28.2464 5.66383 -0.00128517)
(19.8603 1.65916 -0.00146431)
(12.9608 1.77456 -0.000430593)
(8.53933 0.75608 -8.0806e-05)
(7.35928 0.21263 -1.60472e-05)
(6.89616 0.121558 -3.46349e-06)
(6.22322 0.0805263 -6.21425e-07)
(5.60294 0.0519447 -8.17256e-08)
(5.08438 0.0376569 -7.7202e-09)
(4.59355 0.0312246 -5.37898e-10)
(4.09328 0.0234051 -3.50256e-11)
(3.56826 0.016862 -7.7457e-12)
(3.03363 0.0114711 -1.12574e-11)
(2.50961 0.00729018 -4.28648e-11)
(2.00553 0.00413649 -2.22675e-11)
(1.52352 0.00194792 3.169e-12)
(1.06658 0.000535959 5.68371e-11)
(0.640213 -0.000163706 5.4129e-11)
(0.245545 -0.000399046 1.6743e-11)
(-0.123272 -0.000312934 2.40008e-11)
(-0.478652 -0.000124041 1.71609e-11)
(-0.833504 0.000123432 1.02665e-11)
(-1.18928 0.000355512 1.97937e-11)
(-1.53749 0.000650174 5.26334e-11)
(-1.86409 0.000986537 1.43904e-11)
(-2.15647 0.00147515 -1.65814e-11)
(-2.40785 0.00200862 -4.05803e-12)
(-2.61785 0.00263445 -8.23657e-12)
(-2.78982 0.00321933 3.36034e-11)
(-2.92821 0.00374681 -6.37903e-12)
(-3.03786 0.00415832 -6.70585e-12)
(-3.12289 0.00444639 1.69009e-12)
(-3.18735 0.00455474 1.21061e-11)
(-3.2345 0.00449089 -5.02202e-12)
(-3.26713 0.0042684 -2.0628e-11)
(-3.28887 0.00383207 -2.13858e-11)
(-3.30259 0.00326538 -1.90164e-11)
(-3.31231 0.00247652 -4.36524e-12)
(-3.32082 0.00156378 -6.12859e-14)
(-3.33112 0.000505751 1.89052e-11)
(-3.34531 -0.000572075 1.31153e-11)
(-3.36533 -0.00166787 -2.51931e-11)
(-3.39252 -0.00268238 -3.29541e-11)
(-3.42726 -0.00361541 -3.6285e-11)
(-3.46984 -0.00434839 -2.69734e-12)
(-3.51911 -0.00489813 1.0449e-11)
(-3.57383 -0.00517606 2.36794e-12)
(-3.63171 -0.00520285 3.07926e-11)
(-3.69031 -0.00490364 5.12323e-11)
(-3.7458 -0.00429565 3.32134e-11)
(-3.79376 -0.00327469 -2.6499e-13)
(-3.8317 -0.00174735 2.30274e-11)
(-3.85978 -0.000220611 2.54673e-11)
(65.6231 1.17943 2.02715e-06)
(65.4172 0.796227 4.13469e-06)
(65.9274 0.384161 -6.05765e-06)
(66.1075 0.0118324 9.389e-07)
(65.7707 0.692267 8.36884e-06)
(65.5574 0.564348 -6.83545e-06)
(65.2516 1.21735 -1.97303e-05)
(65.0321 1.8544 1.9027e-05)
(65.1965 0.165631 0.000119803)
(65.4137 0.345709 0.00337736)
(66.3437 3.30498 0.00150183)
(68.2569 0.67413 0.00101254)
(67.2509 -7.17733 0.00140474)
(65.2475 1.79748 6.21024e-05)
(66.435 1.18421 -0.000797199)
(69.926 0.752944 0.000573004)
(68.0693 -2.55247 -0.00227329)
(62.0686 -8.35978 -0.0151717)
(66.0475 6.47113 -0.00109136)
(71.1674 -2.94411 0.00263568)
(66.4795 3.36493 0.00823625)
(64.6888 7.83822 0.0185257)
(66.9042 11.2246 0.0206059)
(66.9337 6.43935 0.0186508)
(69.2387 2.12357 0.00495067)
(71.8007 1.98831 0.00730862)
(72.6586 0.530819 0.0162406)
(74.1066 2.72162 0.0106152)
(70.1088 5.9214 0.0151434)
(67.0866 -2.46483 0.0129689)
(68.2701 -0.768153 0.00848187)
(70.929 -0.66091 0.00754352)
(71.1785 -0.545805 0.00671988)
(67.7336 -2.12465 0.0136833)
(68.4848 -2.04438 0.0455825)
(69.4579 -0.666713 0.0638342)
(69.9206 0.518622 0.017872)
(67.647 -0.581145 0.00207998)
(63.3015 -0.21592 -0.00553047)
(61.8191 -0.946629 -0.00972886)
(59.4171 0.117733 -0.0048181)
(57.979 -3.28309 -0.00243397)
(56.8708 -1.16155 -0.00356268)
(50.0972 1.11696 -0.000147282)
(32.2693 1.12816 -0.000191943)
(8.32441 2.73039 0.00150377)
(22.3266 0.0974613 -0.00026019)
(25.0909 7.7894 -0.000733351)
(17.4553 2.02336 -0.000508519)
(12.1154 1.84331 -0.000189297)
(8.35985 0.954271 -8.16978e-05)
(7.32993 0.24148 -1.7915e-05)
(6.90006 0.15172 -5.72987e-06)
(6.22735 0.105525 -1.34405e-06)
(5.60577 0.0670131 -2.02418e-07)
(5.08666 0.0484151 -2.05801e-08)
(4.59468 0.0403376 -1.47078e-09)
(4.0933 0.0303275 -8.42526e-11)
(3.56758 0.0219087 -1.10071e-11)
(3.03231 0.0149799 -1.48334e-11)
(2.5076 0.00961136 -3.71034e-11)
(2.00275 0.00556617 -1.93686e-11)
(1.51994 0.00275046 -1.30069e-12)
(1.06221 0.000921543 6.4176e-11)
(0.635079 1.56996e-06 4.68749e-11)
(0.239707 -0.000319186 6.93926e-12)
(-0.129709 -0.000207509 1.86137e-11)
(-0.485731 4.15831e-05 2.23002e-11)
(-0.841237 0.000360435 2.48479e-11)
(-1.19766 0.000650751 1.31599e-11)
(-1.5465 0.00100353 4.07735e-11)
(-1.87366 0.00140682 1.87004e-11)
(-2.16652 0.00200102 -2.0928e-11)
(-2.41832 0.00266153 -1.20558e-11)
(-2.6287 0.00344053 -2.15549e-12)
(-2.80098 0.0041724 3.32579e-11)
(-2.93967 0.00483124 -8.50442e-12)
(-3.04957 0.00534488 1.74959e-12)
(-3.13482 0.00570159 -2.65951e-13)
(-3.19947 0.0058278 -5.25176e-12)
(-3.24675 0.00573803 -5.05364e-12)
(-3.27949 0.00544431 -1.44104e-11)
(-3.30129 0.00487852 -1.68919e-11)
(-3.31505 0.00414974 -2.52112e-11)
(-3.32477 0.00313749 -3.03316e-12)
(-3.33329 0.001974 1.06905e-11)
(-3.3436 0.000623429 1.39545e-11)
(-3.35782 -0.000749856 1.00595e-11)
(-3.37787 -0.00215085 -1.42353e-11)
(-3.40508 -0.00344146 -3.18063e-11)
(-3.43987 -0.00463109 -3.17102e-11)
(-3.4825 -0.00556198 -1.73275e-12)
(-3.53184 -0.00626198 1.64164e-11)
(-3.58665 -0.00661289 4.33924e-12)
(-3.64462 -0.0066451 2.13931e-11)
(-3.70331 -0.00626083 4.17263e-11)
(-3.75889 -0.00548401 3.42319e-11)
(-3.80689 -0.0041949 -5.49881e-12)
(-3.8446 -0.00233048 1.41308e-11)
(-3.87043 -0.000406759 3.57188e-11)
(65.1755 1.21707 1.97098e-06)
(64.93 0.830314 4.70392e-06)
(65.4557 0.413673 -4.1726e-06)
(65.7268 -0.0301835 -1.27661e-05)
(65.3723 0.974652 -3.089e-05)
(65.1344 0.802192 -3.85769e-05)
(64.8247 1.26681 -7.46863e-05)
(64.4198 1.8064 3.93296e-05)
(64.5871 0.0797129 0.000341876)
(65.1906 0.797945 0.00101835)
(65.7578 4.26708 0.00117189)
(66.6351 0.855083 0.00229414)
(66.7648 -4.0819 0.00285411)
(65.1116 1.22292 0.000805804)
(65.8218 1.31109 -0.00198014)
(68.8739 0.216407 -5.77452e-05)
(67.2901 -3.46069 -0.000267619)
(62.2821 -9.15171 -0.00276154)
(65.746 6.55344 0.00528543)
(72.0006 -3.4483 0.00643402)
(66.9886 2.55071 0.00069616)
(64.3388 11.0746 0.005889)
(66.387 9.13245 0.0185388)
(66.147 7.27564 0.00876767)
(68.9659 3.89916 -0.0282129)
(71.4368 2.56498 -0.00624058)
(72.0639 0.112323 0.0139047)
(73.453 3.69594 0.062522)
(69.3346 -2.0299 0.0347276)
(66.5176 -2.96513 0.0201182)
(68.1353 -0.91146 0.0123372)
(70.6289 -1.16924 0.0183706)
(70.4529 -0.75423 0.0142357)
(67.2315 -2.56246 0.0121841)
(68.06 -2.50442 0.0278565)
(69.0704 -0.669132 0.0253689)
(69.3137 0.910787 0.00818975)
(66.9855 -0.771996 -0.00156379)
(62.6722 -0.478458 -0.00807423)
(61.2552 -1.22384 -0.0146768)
(58.6871 0.227965 -0.00558607)
(57.2356 -4.25265 -0.00184766)
(56.2066 -1.62027 -0.00697394)
(49.7349 1.45759 0.000330275)
(32.1846 0.152041 0.00171891)
(8.01062 3.44647 0.000429164)
(22.3495 -0.672191 -0.000548179)
(23.4559 10.547 -0.000481017)
(16.0186 2.41892 -0.000184728)
(11.7009 1.85674 -0.000135481)
(8.27959 1.08561 -0.000129777)
(7.30646 0.277022 5.38661e-05)
(6.89989 0.182849 -3.46007e-06)
(6.22512 0.126332 -2.64222e-06)
(5.60318 0.0822516 -4.95202e-07)
(5.08442 0.0589514 -5.51417e-08)
(4.59209 0.0494242 -4.09735e-09)
(4.09019 0.037242 -2.21964e-10)
(3.56427 0.0269445 -1.72165e-11)
(3.02884 0.0184826 -1.89315e-11)
(2.50391 0.0119285 -3.62099e-11)
(1.99878 0.00699664 -1.76015e-11)
(1.51563 0.00355311 -4.11953e-12)
(1.05757 0.00130768 6.52538e-11)
(0.630122 0.000166662 2.94421e-11)
(0.234477 -0.000243191 -1.08805e-12)
(-0.135136 -0.000106572 1.48536e-11)
(-0.491413 0.000202974 2.78936e-11)
(-0.847199 0.00059276 3.86147e-11)
(-1.20392 0.000944714 6.84846e-12)
(-1.55305 0.00135339 2.19898e-11)
(-1.88047 0.00182831 2.35646e-11)
(-2.17355 0.00252585 -2.80944e-11)
(-2.42553 0.00331591 -2.07036e-11)
(-2.63606 0.00424986 1.72903e-12)
(-2.8085 0.0051298 2.51924e-11)
(-2.94732 0.00592171 -1.17157e-11)
(-3.05736 0.00653816 9.16972e-12)
(-3.14273 0.00696499 -2.27586e-12)
(-3.20749 0.00710866 -2.04803e-11)
(-3.25486 0.00699407 -5.13836e-12)
(-3.28767 0.00662726 -1.05192e-11)
(-3.30952 0.00593345 -1.38343e-11)
(-3.32332 0.00504096 -3.25297e-11)
(-3.33308 0.00380584 -1.26082e-12)
(-3.34164 0.00239091 2.15595e-11)
(-3.352 0.000747929 1.1329e-11)
(-3.36628 -0.000921543 8.70118e-12)
(-3.3864 -0.00262819 -6.46825e-12)
(-3.41368 -0.00419613 -3.42181e-11)
(-3.44854 -0.00564286 -3.12768e-11)
(-3.49125 -0.00677232 4.65203e-14)
(-3.54068 -0.00762306 2.43578e-11)
(-3.5956 -0.00804716 5.53658e-12)
(-3.65367 -0.00808552 1.52226e-11)
(-3.71247 -0.00761622 3.78879e-11)
(-3.76813 -0.00667176 3.8246e-11)
(-3.81618 -0.0051186 -1.30839e-11)
(-3.85373 -0.00293895 7.09217e-12)
(-3.87789 -0.000628726 4.92168e-11)
(64.5069 1.15041 2.98865e-06)
(64.1941 0.770274 7.52042e-06)
(64.6901 0.423033 4.27843e-06)
(65.0241 -0.0810305 -2.21177e-05)
(64.6613 1.24908 -6.12512e-05)
(64.3559 1.04752 -0.000114393)
(64.1337 1.01435 -0.000253642)
(63.5859 1.36223 -9.54299e-05)
(63.7815 -0.165997 -0.000332498)
(64.7923 0.871657 0.00158972)
(65.058 5.83336 0.00245518)
(65.3812 0.24892 0.00552049)
(66.0869 -3.24134 0.015309)
(64.6916 0.381409 0.0059889)
(65.0437 1.13434 7.62017e-05)
(67.9718 -0.786453 0.0118217)
(66.0002 -4.26181 0.0141156)
(61.8525 -6.45756 0.00194563)
(65.9655 9.09391 0.00984776)
(71.1863 -1.52153 0.0103978)
(67.8235 -5.71703 0.0108149)
(64.4124 10.8619 0.00893807)
(65.5862 7.72027 0.0120648)
(65.4645 8.08234 0.00226604)
(68.7193 7.05416 -0.0367703)
(71.2791 3.23281 -0.0143131)
(71.6458 0.0290872 0.00309881)
(72.6206 4.82152 0.0184771)
(68.7019 -6.78875 0.0186481)
(66.8048 -2.84157 0.018663)
(67.9747 -0.910676 0.0162663)
(70.2999 -1.23868 0.0141635)
(70.162 -0.848821 0.009793)
(66.6523 -3.04665 0.00895149)
(67.5807 -3.06614 0.0134837)
(68.6162 -0.770903 0.00917251)
(68.6072 1.22579 0.000469928)
(66.2008 -0.972519 -0.0053473)
(61.9374 -0.829414 -0.0101118)
(60.681 -1.4885 -0.0212481)
(57.8383 0.390375 -0.00401429)
(56.4032 -5.22702 0.000412654)
(55.9128 -2.20971 -0.000884762)
(49.0858 1.80037 0.00233926)
(31.9716 -1.70189 0.00702183)
(7.56257 4.195 0.00174589)
(22.8512 -0.9169 -0.000469872)
(22.601 13.4858 -0.000634257)
(15.0704 2.81971 -0.000428198)
(11.4966 1.77321 -0.000207355)
(8.24226 0.946574 -0.000117407)
(7.29758 0.329741 0.000568705)
(6.89782 0.215445 1.60739e-05)
(6.22063 0.148676 -5.07989e-06)
(5.59872 0.0976882 -1.22021e-06)
(5.0809 0.0691472 -1.48735e-07)
(4.58867 0.0584571 -1.1538e-08)
(4.08648 0.0441305 -6.17663e-10)
(3.56058 0.0319563 -3.26154e-11)
(3.02519 0.0219669 -2.37923e-11)
(2.50025 0.0142319 -3.8825e-11)
(1.99504 0.00841714 -1.6253e-11)
(1.51177 0.00434781 -5.74013e-12)
(1.0536 0.00168709 5.96348e-11)
(0.62603 0.000324421 2.90142e-11)
(0.230296 -0.000175163 2.07283e-12)
(-0.139361 -1.60088e-05 1.18879e-11)
(-0.49574 0.000356487 2.17487e-11)
(-0.851652 0.000819152 4.09177e-11)
(-1.20852 0.00123175 5.55606e-13)
(-1.55779 0.00169803 1.96293e-11)
(-1.88533 0.00224532 2.96557e-11)
(-2.1785 0.00304728 -2.84288e-11)
(-2.43056 0.0039684 -1.92864e-11)
(-2.64115 0.00505629 -5.98812e-12)
(-2.81363 0.00608639 2.20002e-11)
(-2.95251 0.00701242 -5.53825e-12)
(-3.0626 0.00773345 1.68612e-11)
(-3.14803 0.00822971 -4.12977e-12)
(-3.21283 0.00839236 -3.62583e-11)
(-3.26024 0.00825243 -5.04385e-12)
(-3.29308 0.00781218 -7.88869e-12)
(-3.31494 0.00699153 -1.06612e-11)
(-3.32876 0.00593431 -2.1691e-11)
(-3.33853 0.00447765 6.87082e-13)
(-3.34711 0.00281109 3.42666e-11)
(-3.35751 0.000875877 9.99323e-12)
(-3.37183 -0.0010895 8.30489e-12)
(-3.392 -0.00310172 4.79881e-13)
(-3.41934 -0.0049472 -2.12929e-11)
(-3.45426 -0.00665114 -3.3973e-11)
(-3.49704 -0.00797949 2.31494e-12)
(-3.54656 -0.00898065 3.48208e-11)
(-3.60156 -0.00947864 6.37284e-12)
(-3.65973 -0.00952269 1.08794e-11)
(-3.71861 -0.00896958 3.74456e-11)
(-3.77434 -0.00785777 2.82929e-11)
(-3.82242 -0.00604366 -5.76206e-12)
(-3.85987 -0.00356282 -6.59122e-13)
(-3.88287 -0.000872134 4.91279e-11)
(63.5461 0.977108 1.62685e-05)
(63.1482 0.614001 3.98876e-05)
(63.6198 0.403591 1.65098e-05)
(64.073 -0.114472 -7.99396e-05)
(63.7297 1.50536 -4.5962e-05)
(63.2891 1.10373 0.000305277)
(63.1255 0.304573 -0.000212985)
(62.5239 0.999352 -0.000886157)
(62.8204 0.00846146 -0.0138827)
(64.3239 0.624634 -0.000903565)
(64.1119 2.21293 0.00169859)
(63.849 -0.841099 0.0040794)
(65.1396 -3.31471 0.00589951)
(63.9615 0.0932866 0.00787954)
(64.1081 1.66779 0.00848799)
(67.3938 -3.24478 0.019917)
(65.6514 -5.46566 0.0634677)
(62.186 -3.18383 0.0266888)
(65.6227 11.3834 0.0369077)
(71.2722 -2.67514 0.0425487)
(68.6794 -5.22811 0.0181729)
(64.6476 7.91397 0.013034)
(64.8371 6.77225 0.00907585)
(65.0672 8.13592 0.00327623)
(67.9397 8.18223 -0.0131578)
(70.0676 3.95758 -0.0156718)
(71.0575 0.28466 0.00139804)
(71.8452 5.65398 0.009807)
(68.0095 -3.64344 0.0183688)
(66.8059 -1.93492 0.0250189)
(67.7262 -0.889116 0.0230143)
(69.8325 -1.09322 0.0177257)
(69.5602 -1.24307 0.0112656)
(65.9935 -3.67426 0.00729642)
(67.0518 -3.67246 0.00585103)
(68.1193 -0.818553 0.00121807)
(67.8087 1.60856 -0.00507244)
(65.2876 -1.10885 -0.00851235)
(61.1068 -1.13869 -0.0112504)
(59.8761 -1.94679 -0.00894541)
(56.835 0.337031 0.00368623)
(55.441 -5.96903 0.00426134)
(55.3302 -2.55468 0.00332171)
(48.2524 2.08191 0.00428653)
(32.0458 6.03894 0.0167649)
(7.07521 4.90158 0.00448069)
(23.6331 -1.32176 -5.54494e-05)
(20.3098 13.2328 -0.00112861)
(14.3681 3.30338 -0.000551648)
(11.6057 1.57715 0.000152731)
(8.25213 0.292067 0.000338158)
(7.26283 0.388921 7.0155e-05)
(6.89159 0.248001 -2.3236e-05)
(6.21583 0.171101 -1.34009e-05)
(5.59398 0.113481 -3.12807e-06)
(5.07739 0.0788356 -4.05282e-07)
(4.58554 0.0674391 -3.26598e-08)
(4.08313 0.0509944 -1.7601e-09)
(3.55736 0.0369476 -7.54262e-11)
(3.0221 0.0254372 -3.01795e-11)
(2.49723 0.0165238 -3.17327e-11)
(1.99205 0.00983058 -1.46752e-11)
(1.50877 0.00513547 -6.45723e-12)
(1.05059 0.00206073 5.06667e-11)
(0.622996 0.000476949 3.10631e-11)
(0.227251 -0.00011415 4.25313e-12)
(-0.142394 6.90125e-05 9.37186e-12)
(-0.498816 0.000504236 1.72368e-11)
(-0.854792 0.00103808 3.56741e-11)
(-1.21174 0.00151578 -6.62005e-12)
(-1.56109 0.00203637 1.84021e-11)
(-1.88868 0.00265916 2.80122e-11)
(-2.18189 0.00356308 -2.1701e-11)
(-2.43397 0.00461611 -2.04155e-11)
(-2.64457 0.00585966 -1.35902e-11)
(-2.81707 0.00703969 2.25997e-11)
(-2.95597 0.00810049 -1.85237e-12)
(-3.06608 0.00892591 1.66841e-11)
(-3.15154 0.00949321 -5.28154e-12)
(-3.21636 0.00967386 -3.5588e-11)
(-3.26378 0.00951021 -4.50052e-12)
(-3.29662 0.00899481 -5.97005e-12)
(-3.31849 0.00804915 -7.89599e-12)
(-3.3323 0.00682633 -1.40809e-11)
(-3.34207 0.00514966 2.08246e-12)
(-3.35065 0.00323153 3.32306e-11)
(-3.36106 0.00100544 9.34095e-12)
(-3.37541 -0.00125574 8.50568e-12)
(-3.39561 -0.00357225 6.88599e-12)
(-3.42297 -0.00569557 -1.16219e-11)
(-3.45794 -0.00765591 -2.41211e-11)
(-3.50076 -0.00918321 4.35919e-12)
(-3.55033 -0.0103346 3.361e-11)
(-3.60539 -0.0109062 6.92637e-12)
(-3.66361 -0.0109565 7.25033e-12)
(-3.72255 -0.0103193 4.05734e-11)
(-3.77832 -0.00904145 2.19393e-11)
(-3.82642 -0.00696802 -1.85748e-12)
(-3.86379 -0.00419405 -9.87477e-12)
(-3.88603 -0.00112578 4.06147e-11)
(62.1028 0.719882 5.77069e-05)
(61.6384 0.634997 0.000113891)
(62.1627 0.376181 7.12607e-05)
(62.797 -0.0562502 -0.000194162)
(62.479 1.58895 0.000402322)
(61.7705 1.0238 0.00209884)
(61.8141 -1.112 0.00313077)
(61.2011 0.896445 0.00586998)
(61.6011 0.727142 0.00148292)
(63.0079 0.0652798 0.00678604)
(62.798 -1.38438 0.0103793)
(62.5913 6.25058 0.00539209)
(64.2274 -5.98566 0.00568156)
(63.3494 -0.0214522 0.0129231)
(62.8302 2.35942 0.0120447)
(66.2044 -8.33307 0.024261)
(65.2147 -4.23993 0.0244081)
(62.6371 0.147408 0.0198956)
(65.3152 17.1798 0.0749104)
(70.5343 -2.43722 0.0334694)
(68.8565 -4.32445 0.0179943)
(64.7978 0.905772 0.0120211)
(64.8436 6.24505 0.0088816)
(64.7987 8.54101 0.00466051)
(67.4635 9.35592 -0.000773853)
(69.2563 4.8183 -0.000160012)
(70.8525 0.677908 0.00412142)
(71.6163 6.36061 0.00970091)
(67.2223 -1.93373 0.0221973)
(66.8669 0.549992 0.0294092)
(67.4122 -0.645455 0.0209013)
(69.144 0.0295552 0.0192862)
(68.7851 -1.62936 0.0123895)
(65.2401 -4.27866 0.00644557)
(66.5027 -4.28278 0.00193515)
(67.5714 -0.477428 -0.00324774)
(66.9356 1.9694 -0.00916095)
(64.266 -1.25489 -0.0107532)
(60.1848 -1.35249 -0.0116744)
(59.0669 -2.44863 -0.00251305)
(55.8699 0.0850416 0.0171794)
(54.377 -6.06782 0.00846583)
(54.7091 -2.7365 0.00644604)
(48.0609 2.33181 0.00564216)
(31.1007 10.0229 0.00855121)
(6.96481 5.43982 0.00232607)
(24.9226 0.171333 -0.000700417)
(21.6098 23.1689 -0.00104706)
(13.5184 3.95 -0.000469307)
(11.1031 1.44509 7.89232e-05)
(8.09667 -1.45561 -8.98225e-05)
(7.27816 0.432791 -4.06654e-05)
(6.88735 0.278889 -5.24856e-05)
(6.21254 0.193803 -2.89838e-05)
(5.58972 0.129915 -7.8391e-06)
(5.07427 0.0878531 -1.10061e-06)
(4.58301 0.0763726 -9.20436e-08)
(4.08037 0.05783 -5.01338e-09)
(3.55477 0.0419159 -1.9636e-10)
(3.01968 0.0288904 -3.0786e-11)
(2.49495 0.0188029 -2.70792e-11)
(1.98985 0.0112341 -1.30166e-11)
(1.50664 0.00591523 -6.5006e-12)
(1.0485 0.00242802 3.99441e-11)
(0.620937 0.000623187 2.64908e-11)
(0.225218 -5.78437e-05 5.18503e-12)
(-0.144398 0.000146702 7.09644e-12)
(-0.500838 0.000646684 1.36354e-11)
(-0.856851 0.00125366 3.35454e-11)
(-1.21385 0.00179254 -6.26897e-12)
(-1.56324 0.00236974 1.8522e-11)
(-1.89086 0.00306775 2.87314e-11)
(-2.18408 0.00407466 -1.88099e-11)
(-2.43616 0.00526072 -1.48855e-11)
(-2.64676 0.00665771 -1.32335e-11)
(-2.81926 0.00798924 1.81132e-11)
(-2.95817 0.00918511 3.62999e-13)
(-3.0683 0.0101163 1.86924e-11)
(-3.15376 0.0107528 -6.48945e-12)
(-3.2186 0.0109533 -3.92146e-11)
(-3.26602 0.0107645 -3.32723e-12)
(-3.29887 0.0101744 -4.42465e-12)
(-3.32073 0.00910446 -5.59279e-12)
(-3.33454 0.00771564 -8.3909e-12)
(-3.3443 0.00582009 3.35266e-12)
(-3.35288 0.00365046 3.69234e-11)
(-3.3633 0.00113393 9.01911e-12)
(-3.37765 -0.00142221 9.10796e-12)
(-3.39786 -0.00404257 1.31794e-11)
(-3.42524 -0.00644326 -4.12873e-12)
(-3.46022 -0.00865974 -1.82819e-11)
(-3.50306 -0.0103859 6.47119e-12)
(-3.55265 -0.0116868 3.68095e-11)
(-3.60774 -0.0123326 7.25638e-12)
(-3.66599 -0.0123881 3.17202e-12)
(-3.72495 -0.0116681 3.42651e-11)
(-3.78074 -0.0102236 1.75993e-11)
(-3.82884 -0.00789214 6.13381e-13)
(-3.86615 -0.00482715 -8.9415e-12)
(-3.88792 -0.0013831 3.86055e-11)
(59.864 0.43194 5.36054e-05)
(59.6493 0.595478 0.000270134)
(60.335 0.383851 0.000278091)
(61.0728 0.0712054 -0.000114088)
(60.7707 1.30981 0.00543212)
(59.8486 0.793391 0.0240159)
(60.1556 -3.68408 0.00929325)
(59.7518 0.672577 0.00819823)
(59.8359 1.85556 0.0142983)
(61.5191 -0.638523 0.0138907)
(62.3332 -0.962161 0.00516641)