/*--------------------------------*- C++ -*----------------------------------*\
  =========                 |
  \\      /  F ield         | OpenFOAM: The Open Source CFD Toolbox
   \\    /   O peration     | Website:  https://openfoam.org
    \\  /    A nd           | Version:  6
     \\/     M anipulation  |
\*---------------------------------------------------------------------------*/
FoamFile
{
    version     2.0;
    format      ascii;
    class       volScalarField;
    location    "0.005";
    object      varZ;
}
// * * * * * * * * * * * * * * * * * * * * * * * * * * * * * * * * * * * * * //

dimensions      [0 0 0 0 0 0 0];

internalField   nonuniform List<scalar> 
8000
(
5.52703e-09
1.59315e-08
2.21395e-08
4.50658e-08
1.1256e-07
2.87735e-07
6.63392e-07
1.31749e-06
2.1469e-06
3.00128e-06
3.73947e-06
4.24772e-06
4.53672e-06
4.60485e-06
4.31858e-06
3.95912e-06
3.8475e-06
4.19794e-06
4.93856e-06
6.74456e-06
1.31079e-05
4.65419e-05
0.000415536
0.000334489
0.000712209
0.00128223
0.00144942
0.00120073
0.000877844
0.00064251
0.000512301
0.000461737
0.000462456
0.000497513
0.000552555
0.000602402
0.000637669
0.000658803
0.000670274
0.000675494
0.000678705
0.000685765
0.000695067
0.000703842
0.000661471
0.000410235
0.000173205
8.95213e-05
4.64584e-05
1.53328e-05
3.0218e-06
3.88529e-07
3.46306e-08
2.22058e-09
1.0835e-10
4.15083e-12
1.25989e-13
3.02862e-15
5.85396e-17
1.00696e-18
2.31841e-20
1.10058e-21
7.50999e-23
5.39079e-24
3.81077e-25
2.64552e-26
1.95788e-27
1.51757e-28
1.14974e-29
8.50382e-31
6.1534e-32
4.36455e-33
3.0405e-34
2.08576e-35
1.41304e-36
9.35473e-38
6.18203e-39
4.10091e-40
2.74382e-41
1.85679e-42
1.27313e-43
8.85181e-45
6.23459e-46
4.4341e-47
3.17061e-48
2.2701e-49
1.62313e-50
1.15732e-51
8.22939e-53
5.84723e-54
4.16263e-55
2.96017e-56
2.09348e-57
1.46796e-58
1.01869e-59
6.98717e-61
4.73243e-62
3.16313e-63
2.08905e-64
1.70278e-65
1.86058e-08
8.04175e-08
6.90278e-08
9.80116e-08
1.75858e-07
3.83813e-07
8.68781e-07
1.85181e-06
3.24343e-06
4.59221e-06
5.71766e-06
6.25365e-06
6.26803e-06
6.145e-06
5.48459e-06
4.82135e-06
4.67822e-06
5.3839e-06
6.50557e-06
8.4156e-06
1.40025e-05
3.9319e-05
0.000214678
0.000287998
0.000638734
0.0011404
0.00143667
0.00113394
0.000826118
0.000612999
0.000496063
0.000454407
0.000463234
0.000507559
0.000574057
0.000625646
0.000656741
0.000672805
0.000680482
0.000683171
0.000683923
0.00068932
0.000697528
0.000706783
0.000668129
0.000434803
0.000181772
9.3357e-05
4.30782e-05
1.28784e-05
2.62777e-06
3.53504e-07
3.1838e-08
2.04899e-09
1.0053e-10
3.88316e-12
1.19e-13
2.89165e-15
5.66429e-17
9.9451e-19
2.36039e-20
1.13869e-21
7.77789e-23
5.57254e-24
3.92966e-25
2.72279e-26
2.01245e-27
1.55812e-28
1.17914e-29
8.71055e-31
6.29467e-32
4.45841e-33
3.10111e-34
2.12377e-35
1.43617e-36
9.4893e-38
6.25703e-39
4.14074e-40
2.76356e-41
1.86551e-42
1.2761e-43
8.85385e-45
6.22515e-46
4.42132e-47
3.15828e-48
2.25968e-49
1.61494e-50
1.15116e-51
8.18442e-53
5.81511e-54
4.13997e-55
2.94418e-56
2.08223e-57
1.46009e-58
1.01324e-59
6.94988e-61
4.70724e-62
3.14637e-63
2.07813e-64
1.69516e-65
8.72375e-09
3.39366e-08
9.7477e-08
2.14679e-07
3.56299e-07
5.58585e-07
1.01234e-06
2.004e-06
3.98162e-06
7.04575e-06
9.85783e-06
1.03221e-05
8.80057e-06
6.46701e-06
4.98936e-06
4.55042e-06
5.31027e-06
7.61405e-06
1.03701e-05
1.28069e-05
1.77041e-05
4.0513e-05
0.000225235
0.000268255
0.000663069
0.0014134
0.00187587
0.00134543
0.000870233
0.00060108
0.000479382
0.000448528
0.000472066
0.000532445
0.000619097
0.000672284
0.000692723
0.000698667
0.000699274
0.000697516
0.000693587
0.000695505
0.000701717
0.000712005
0.000680225
0.000440779
0.000195547
9.27313e-05
4.48823e-05
1.34457e-05
2.40832e-06
2.89988e-07
2.49867e-08
1.59877e-09
7.89772e-11
3.09168e-12
9.64619e-14
2.3994e-15
4.86093e-17
9.0623e-19
2.36608e-20
1.20371e-21
8.28232e-23
5.92377e-24
4.16399e-25
2.87829e-26
2.12679e-27
1.64403e-28
1.24155e-29
9.15055e-31
6.59604e-32
4.65905e-33
3.23094e-34
2.20539e-35
1.48595e-36
9.77977e-38
6.41954e-39
4.22754e-40
2.80703e-41
1.88507e-42
1.28312e-43
8.86326e-45
6.20857e-46
4.39658e-47
3.13372e-48
2.23867e-49
1.59831e-50
1.13859e-51
8.09255e-53
5.7494e-54
4.09357e-55
2.91143e-56
2.05921e-57
1.44402e-58
1.00213e-59
6.874e-61
4.65608e-62
3.11234e-63
2.0559e-64
1.67895e-65
1.57065e-08
9.46933e-08
3.20577e-07
6.9515e-07
1.04664e-06
1.0647e-06
1.28703e-06
2.03349e-06
3.94755e-06
8.9377e-06
1.83268e-05
1.76004e-05
1.10792e-05
6.29974e-06
4.40368e-06
4.44477e-06
6.34613e-06
1.14724e-05
1.85206e-05
2.2403e-05
2.67344e-05
3.99053e-05
0.000101353
0.00017378
0.000399808
0.000987348
0.00132923
0.000972239
0.000686695
0.000522784
0.000453468
0.000455853
0.000500923
0.000575608
0.000674245
0.000729261
0.000733694
0.000728383
0.000720925
0.000714871
0.000705129
0.000701898
0.000705782
0.00071737
0.000697896
0.000459711
0.00018775
7.37976e-05
2.93146e-05
8.13067e-06
1.39338e-06
1.64144e-07
1.49328e-08
1.01123e-09
5.23075e-11
2.14243e-12
7.02912e-14
1.8573e-15
4.0665e-17
8.42739e-19
2.4568e-20
1.3004e-21
8.9704e-23
6.40179e-24
4.48593e-25
3.09463e-26
2.28747e-27
1.76474e-28
1.32924e-29
9.76887e-31
7.01965e-32
4.94117e-33
3.41358e-34
2.32027e-35
1.55607e-36
1.01893e-37
6.649e-39
4.35039e-40
2.86881e-41
1.91312e-42
1.29344e-43
8.87989e-45
6.18781e-46
4.3637e-47
3.10057e-48
2.21013e-49
1.57563e-50
1.12141e-51
7.96663e-53
5.65908e-54
4.02955e-55
2.86613e-56
2.02729e-57
1.42171e-58
9.86696e-60
6.76848e-61
4.58488e-62
3.06495e-63
2.02487e-64
1.65553e-65
2.16735e-08
1.7679e-07
6.81272e-07
1.26535e-06
1.67507e-06
1.5002e-06
1.40132e-06
1.94772e-06
3.37895e-06
6.3225e-06
1.01281e-05
1.01735e-05
7.51626e-06
5.01667e-06
4.11353e-06
5.14343e-06
9.04029e-06
1.97753e-05
4.25233e-05
4.4009e-05
4.50629e-05
5.19674e-05
8.1575e-05
0.000151184
0.000281827
0.000517978
0.000696158
0.00076396
0.000634887
0.00052003
0.000474176
0.000506342
0.000567299
0.000643271
0.000717773
0.000765135
0.000768687
0.000757243
0.000742521
0.000733379
0.000717208
0.000707119
0.0007082
0.000720777
0.000716451
0.000488701
0.000183849
5.91342e-05
1.82597e-05
4.71978e-06
7.69958e-07
9.37123e-08
9.07403e-09
6.50341e-10
3.5906e-11
1.5978e-12
5.81764e-14
1.73858e-15
4.33878e-17
9.96301e-19
2.90327e-20
1.45245e-21
9.8103e-23
6.96553e-24
4.86526e-25
3.3505e-26
2.4776e-27
1.90724e-28
1.43261e-29
1.04968e-30
7.5177e-32
5.27246e-33
3.62778e-34
2.45482e-35
1.63808e-36
1.06676e-37
6.91634e-39
4.49309e-40
2.94026e-41
1.94529e-42
1.30504e-43
8.89577e-45
6.16085e-46
4.32323e-47
3.06033e-48
2.17566e-49
1.54829e-50
1.10071e-51
7.81477e-53
5.54987e-54
3.95181e-55
2.81093e-56
1.98831e-57
1.39441e-58
9.67784e-60
6.63904e-61
4.49747e-62
3.00671e-63
1.98666e-64
1.62594e-65
1.98674e-08
1.23185e-07
3.69075e-07
6.47888e-07
8.43855e-07
9.51587e-07
1.29996e-06
2.0686e-06
3.38944e-06
6.6509e-06
1.31348e-05
1.24815e-05
8.1461e-06
5.20331e-06
4.6911e-06
6.74816e-06
1.32689e-05
3.67024e-05
0.000106225
9.16652e-05
8.05115e-05
7.87865e-05
9.52959e-05
0.000164868
0.000394311
0.000420242
0.000597009
0.000987775
0.000774394
0.000590707
0.000554344
0.000608748
0.000684597
0.000742489
0.000781901
0.000804034
0.000805908
0.000787186
0.000765036
0.000752806
0.000729821
0.000711852
0.000706983
0.000720496
0.000730785
0.000539067
0.0001947
5.45903e-05
1.38322e-05
3.10296e-06
5.09518e-07
7.1703e-08
7.03263e-09
5.24409e-10
3.18116e-11
1.63933e-12
7.11307e-14
2.52201e-15
7.1863e-17
1.71274e-18
4.27548e-20
1.72037e-21
1.07857e-22
7.56227e-24
5.26244e-25
3.61795e-26
2.67581e-27
2.05523e-28
1.53966e-29
1.12485e-30
8.03056e-32
5.61256e-33
3.84697e-34
2.59199e-35
1.7213e-36
1.11503e-37
7.18406e-39
4.63433e-40
3.00962e-41
1.97534e-42
1.31474e-43
8.89583e-45
6.12116e-46
4.27285e-47
3.01255e-48
2.13555e-49
1.51679e-50
1.07697e-51
7.64088e-53
5.42464e-54
3.86237e-55
2.74725e-56
1.94327e-57
1.36282e-58
9.45877e-60
6.48898e-61
4.39605e-62
2.93911e-63
1.9422e-64
1.59085e-65
3.44032e-08
1.42103e-07
5.01607e-07
8.59297e-07
1.05239e-06
1.1872e-06
1.84759e-06
3.13095e-06
4.12734e-06
4.87548e-06
6.17557e-06
6.28221e-06
5.34453e-06
5.00882e-06
6.12011e-06
9.31102e-06
1.89546e-05
5.83653e-05
0.000221524
0.000167619
0.00013887
0.000129135
0.000138331
0.000192245
0.00034826
0.000362448
0.000451312
0.000589086
0.000551939
0.000588094
0.000694186
0.000772771
0.000841252
0.000867596
0.000874134
0.000868013
0.000851331
0.000821686
0.000791866
0.00077255
0.000744308
0.000718446
0.000704115
0.000717753
0.0007376
0.000586002
0.000203508
5.26413e-05
1.20711e-05
2.61412e-06
4.26241e-07
7.14811e-08
6.71418e-09
5.32109e-10
3.85714e-11
2.49722e-12
1.32329e-13
5.40241e-15
1.66574e-16
3.95132e-18
8.18741e-20
2.28883e-21
1.19691e-22
8.13365e-24
5.63087e-25
3.86458e-26
2.85761e-27
2.1903e-28
1.6369e-29
1.19279e-30
8.49168e-32
5.91656e-33
4.04159e-34
2.71282e-35
1.79388e-36
1.1566e-37
7.41014e-39
4.75003e-40
3.06344e-41
1.99594e-42
1.31868e-43
8.86037e-45
6.05912e-46
4.20807e-47
2.95528e-48
2.08902e-49
1.48089e-50
1.05017e-51
7.44527e-53
5.28385e-54
3.76163e-55
2.67543e-56
1.8924e-57
1.32713e-58
9.21113e-60
6.31927e-61
4.28131e-62
2.86259e-63
1.89183e-64
1.55055e-65
5.51426e-08
1.31669e-07
2.9778e-07
5.51714e-07
8.04065e-07
1.32697e-06
2.4979e-06
4.83197e-06
6.90045e-06
6.37055e-06
6.2287e-06
6.39562e-06
6.52176e-06
7.81018e-06
9.68656e-06
1.34102e-05
2.56451e-05
7.30433e-05
0.000456701
0.000266333
0.000211948
0.000216713
0.000216609
0.000258916
0.000378311
0.000364243
0.000374638
0.000430712
0.000530608
0.000740732
0.000970959
0.00101351
0.00101252
0.00098664
0.000962436
0.000932443
0.000901228
0.000863254
0.000826443
0.000798202
0.000763396
0.000728498
0.000705279
0.000715482
0.000734398
0.000579234
0.00020005
4.99579e-05
1.15361e-05
2.80049e-06
4.60585e-07
5.70777e-08
5.90857e-09
6.20173e-10
6.38126e-11
5.31853e-12
3.24832e-13
1.42502e-14
4.52287e-16
1.0576e-17
1.93596e-19
3.70486e-21
1.37235e-22
8.63355e-24
5.92247e-25
4.05707e-26
2.9984e-27
2.29401e-28
1.71089e-29
1.24399e-30
8.83532e-32
6.14023e-33
4.18262e-34
2.79873e-35
1.84421e-36
1.18445e-37
7.55349e-39
4.81658e-40
3.08841e-41
1.99979e-42
1.31293e-43
8.76866e-45
5.96407e-46
4.12351e-47
2.88583e-48
2.03475e-49
1.4399e-50
1.01994e-51
7.22603e-53
5.1264e-54
3.64896e-55
2.59507e-56
1.83548e-57
1.28718e-58
8.93395e-60
6.12931e-61
4.15285e-62
2.77691e-63
1.83539e-64
1.50498e-65
4.98423e-08
2.6937e-07
4.78948e-07
5.58057e-07
8.37086e-07
1.46539e-06
2.58534e-06
4.99078e-06
7.91428e-06
1.05174e-05
1.16318e-05
1.31531e-05
1.40558e-05
1.62852e-05
1.8898e-05
2.18296e-05
3.49669e-05
9.93846e-05
0.000396381
0.000313826
0.00032142
0.000388518
0.000361185
0.000398304
0.000416027
0.000389228
0.000408142
0.000475701
0.000630443
0.000840373
0.00103418
0.00111276
0.00111094
0.00106487
0.00102227
0.000989191
0.0009563
0.000914863
0.000871188
0.000834001
0.000788385
0.000741035
0.00070996
0.000716655
0.000734614
0.000568055
0.000192242
4.80081e-05
1.02986e-05
2.13638e-06
3.2518e-07
4.25449e-08
5.89141e-09
9.85305e-10
1.43266e-10
1.39111e-11
9.01842e-13
4.03704e-14
1.28221e-15
2.94814e-17
5.05106e-19
7.42862e-21
1.71493e-22
9.06152e-24
6.09546e-25
4.16606e-26
3.07693e-27
2.35052e-28
1.75016e-29
1.27035e-30
9.00597e-32
6.24642e-33
4.24581e-34
2.83426e-35
1.86267e-36
1.19281e-37
7.58019e-39
4.81449e-40
3.07355e-41
1.98079e-42
1.29417e-43
8.60307e-45
5.82672e-46
4.01429e-47
2.80163e-48
1.97136e-49
1.39308e-50
9.85849e-52
6.98059e-53
4.95072e-54
3.52337e-55
2.50554e-56
1.77208e-57
1.24271e-58
8.6254e-60
5.91786e-61
4.00984e-62
2.68151e-63
1.77253e-64
1.45393e-65
5.06047e-08
1.83859e-07
4.39811e-07
8.33631e-07
1.45339e-06
2.76223e-06
4.67547e-06
1.01708e-05
1.91986e-05
2.60727e-05
2.96663e-05
3.40755e-05
3.66617e-05
3.74355e-05
3.76907e-05
3.85462e-05
5.26048e-05
0.000104461
0.000291548
0.000380965
0.000429616
0.000552896
0.000576777
0.00061347
0.00053983
0.000519047
0.000574174
0.000659618
0.00080885
0.000973551
0.00107537
0.00115387
0.00116465
0.00110928
0.0010554
0.00103527
0.0010183
0.000979863
0.000926902
0.000878133
0.000818852
0.000756618
0.000718359
0.000722809
0.000743158
0.000558096
0.000185837
4.30954e-05
9.04363e-06
1.83922e-06
3.01299e-07
4.00034e-08
7.8559e-09
2.02362e-09
3.72611e-10
3.87036e-11
2.53579e-12
1.12698e-13
3.52905e-15
7.95492e-17
1.31182e-18
1.67755e-20
2.48054e-22
9.50972e-24
6.1232e-25
4.17121e-26
3.07868e-27
2.34921e-28
1.74711e-29
1.26656e-30
8.96751e-32
6.21119e-33
4.21566e-34
2.80963e-35
1.84322e-36
1.17805e-37
7.46926e-39
4.73178e-40
3.01212e-41
1.93522e-42
1.2604e-43
8.35273e-45
5.64127e-46
3.87731e-47
2.70098e-48
1.8979e-49
1.33987e-50
9.47588e-52
6.70699e-53
4.75561e-54
3.38411e-55
2.40635e-56
1.70188e-57
1.19348e-58
8.28392e-60
5.68385e-61
3.85156e-62
2.57591e-63
1.70292e-64
1.3972e-65
6.81213e-08
6.13195e-07
1.54331e-06
2.96733e-06
4.90975e-06
8.33619e-06
1.31929e-05
2.81735e-05
6.54554e-05
7.69251e-05
8.8165e-05
9.27226e-05
9.69606e-05
8.92909e-05
7.52279e-05
7.48796e-05
8.81303e-05
0.000128498
0.000258841
0.000417149
0.000515825
0.000672547
0.000789309
0.000894251
0.000770447
0.000735488
0.00082999
0.000934186
0.00114175
0.00126593
0.00126781
0.0012478
0.00120503
0.00113594
0.00108544
0.00108733
0.00109065
0.00105816
0.000992651
0.00092855
0.000853412
0.000777225
0.000732511
0.000735563
0.000763612
0.000562158
0.000176354
3.8613e-05
7.83993e-06
1.52882e-06
2.35674e-07
3.88474e-08
1.20272e-08
4.37386e-09
9.71927e-10
1.04498e-10
6.71477e-12
2.9086e-13
8.88528e-15
1.95577e-16
3.13502e-18
3.73869e-20
4.09749e-22
1.01803e-23
6.00043e-25
4.06505e-26
2.99875e-27
2.28664e-28
1.69937e-29
1.23107e-30
8.70985e-32
6.02818e-33
4.08827e-34
2.72249e-35
1.78451e-36
1.13942e-37
7.21651e-39
4.56621e-40
2.90295e-41
1.86249e-42
1.21128e-43
8.01597e-45
5.40683e-46
3.71208e-47
2.5836e-48
1.81421e-49
1.28018e-50
9.05079e-52
6.4048e-53
4.54078e-54
3.23102e-55
2.29741e-56
1.62482e-57
1.13945e-58
7.90919e-60
5.42705e-61
3.67783e-62
2.45997e-63
1.62647e-64
1.33476e-65
1.95613e-07
3.55439e-06
8.51769e-06
1.45847e-05
2.30179e-05
3.19718e-05
4.29356e-05
8.92813e-05
0.000324251
0.000293033
0.000280701
0.000267549
0.000264688
0.000224866
0.000175374
0.000160361
0.000174844
0.000199257
0.000288067
0.000459839
0.000655325
0.000771948
0.000939548
0.00101896
0.000947961
0.000980057
0.00110131
0.00120441
0.00138397
0.00147773
0.00140626
0.00130985
0.00121902
0.00114922
0.00112989
0.00116407
0.00118145
0.00115005
0.00106625
0.00098254
0.000890355
0.000801618
0.000753762
0.000756607
0.000796951
0.000600454
0.00016886
3.52563e-05
6.83506e-06
1.2825e-06
2.40315e-07
4.2442e-08
1.83624e-08
8.66548e-09
2.29092e-09
2.60873e-10
1.58678e-11
6.55369e-13
1.93036e-14
4.12868e-16
6.45029e-18
7.39705e-20
6.89946e-22
1.12448e-23
5.74121e-25
3.85459e-26
2.84274e-27
2.16724e-28
1.61032e-29
1.16637e-30
8.2508e-32
5.70979e-33
3.87204e-34
2.57842e-35
1.69009e-36
1.07913e-37
6.8354e-39
4.32575e-40
2.75065e-41
1.76519e-42
1.14829e-43
7.60077e-45
5.1277e-46
3.5209e-47
2.45072e-48
1.72096e-49
1.21438e-50
8.58547e-52
6.07537e-53
4.30716e-54
3.06473e-55
2.17915e-56
1.54118e-57
1.08082e-58
7.50251e-60
5.1483e-61
3.4892e-62
2.33403e-63
1.54339e-64
1.2668e-65
1.45883e-06
3.06182e-05
5.42575e-05
7.42113e-05
0.000111215
0.000158232
0.000152424
0.000224116
0.000522905
0.000680358
0.00073619
0.000712681
0.000637366
0.000511961
0.000390589
0.000312773
0.000295885
0.000304339
0.000354448
0.000587558
0.000874576
0.000901592
0.00100413
0.00111704
0.001145
0.00125212
0.00134514
0.00142277
0.00147899
0.00148885
0.00140592
0.00129011
0.00121024
0.00117173
0.00119808
0.00126597
0.00129428
0.00125482
0.00114526
0.00103835
0.000929324
0.000830311
0.00078091
0.000787449
0.000843235
0.000622671
0.000151407
3.18167e-05
5.94114e-06
1.01159e-06
1.69644e-07
4.18565e-08
2.46538e-08
1.42613e-08
4.31415e-09
5.9592e-10
3.19931e-11
1.22033e-12
3.4159e-14
7.06176e-16
1.07643e-17
1.20367e-19
1.03764e-21
1.24626e-23
5.36558e-25
3.55994e-26
2.62578e-27
2.0025e-28
1.48844e-29
1.07852e-30
7.63281e-32
5.28491e-33
3.58614e-34
2.38979e-35
1.56782e-36
1.00199e-37
6.35442e-39
4.02705e-40
2.56478e-41
1.64872e-42
1.07438e-43
7.12338e-45
4.81267e-46
3.30853e-47
2.30496e-48
1.61961e-49
1.14331e-50
8.08491e-52
5.72186e-53
4.05678e-54
2.88662e-55
2.05251e-56
1.45162e-57
1.01804e-58
7.06691e-60
4.84963e-61
3.28702e-62
2.19899e-63
1.45427e-64
1.19381e-65
1.25145e-05
0.000422485
0.000446955
0.000426955
0.000465741
0.000534651
0.000415286
0.000461385
0.000665883
0.00116751
0.00162347
0.00154542
0.00130622
0.00102646
0.000780674
0.000537422
0.000418876
0.000409561
0.000457732
0.000683311
0.000903405
0.000912823
0.000996017
0.001145
0.00132145
0.00146297
0.00148827
0.00149198
0.00147382
0.00144492
0.00131534
0.00122277
0.00119974
0.00122387
0.00129539
0.00138877
0.00141845
0.00136105
0.00122552
0.00109452
0.000970152
0.000864414
0.000816414
0.000829092
0.000897735
0.000570027
0.000136876
2.61527e-05
4.81966e-06
7.63874e-07
1.2744e-07
4.11858e-08
2.83268e-08
1.83016e-08
5.97976e-09
8.75745e-10
4.68967e-11
1.72214e-12
4.65931e-14
9.39484e-16
1.40694e-17
1.54952e-19
1.28838e-21
1.30447e-23
4.89033e-25
3.21034e-26
2.36962e-27
1.80877e-28
1.34569e-29
9.76041e-31
6.91487e-32
4.79337e-33
3.25682e-34
2.17351e-35
1.4283e-36
9.14424e-38
5.8118e-39
3.6923e-40
2.35801e-41
1.52018e-42
9.93508e-44
6.60527e-45
4.47342e-46
3.08133e-47
2.14981e-48
1.51213e-49
1.06814e-50
7.55618e-52
5.34875e-53
3.7926e-54
2.6987e-55
1.91888e-56
1.3571e-57
9.51748e-59
6.60684e-60
4.53408e-61
3.07331e-62
2.05618e-63
1.35997e-64
1.11652e-65
6.73337e-05
0.000433455
0.000750932
0.00110839
0.000937919
0.000745227
0.000588891
0.000698085
0.00100825
0.00170257
0.0024902
0.00230619
0.00184081
0.00135633
0.0010573
0.000706791
0.000520118
0.000452317
0.000519215
0.000698656
0.000808082
0.000851922
0.000968723
0.0011629
0.00136914
0.00148611
0.00146765
0.00139585
0.00130215
0.00124028
0.00117435
0.00116531
0.00121695
0.0013098
0.00141648
0.00152368
0.00154379
0.00145909
0.00130306
0.00114815
0.0010111
0.000904364
0.000862109
0.000882628
0.000948496
0.000489287
0.000117559
2.13468e-05
3.87806e-06
5.97362e-07
1.05544e-07
4.01488e-08
2.95851e-08
1.92386e-08
9.81746e-09
8.57021e-10
4.70673e-11
1.80078e-12
4.98394e-14
1.01173e-15
1.51028e-17
1.64848e-19
1.34332e-21
1.25274e-23
4.3476e-25
2.83905e-26
2.09861e-27
1.60425e-28
1.19531e-29
8.68314e-31
6.16168e-32
4.2787e-33
2.91266e-34
1.94789e-35
1.283e-36
8.23399e-38
5.24859e-39
3.34531e-40
2.14391e-41
1.3872e-42
9.0988e-44
6.06961e-45
4.12261e-46
2.84628e-47
1.98922e-48
1.4008e-49
9.90208e-51
7.00768e-52
4.96141e-53
3.51816e-54
2.50338e-55
1.77992e-56
1.25876e-57
8.82755e-59
6.12781e-60
4.20538e-61
2.85061e-62
1.90731e-63
1.26163e-64
1.03588e-65
0.000132335
0.000318442
0.000468917
0.000801792
0.000864762
0.000721391
0.000582149
0.000636656
0.000936117
0.00134453
0.00165075
0.00171434
0.0014721
0.00114579
0.000889914
0.000729401
0.000605254
0.000537325
0.000578683
0.000660592
0.000698626
0.000767858
0.000905605
0.0010992
0.00125732
0.00127507
0.00123783
0.00115034
0.0010617
0.00105168
0.00107736
0.00116078
0.00129165
0.00144602
0.00157137
0.00169021
0.00168001
0.00155785
0.00138411
0.0012071
0.00105608
0.000955874
0.000924848
0.000959558
0.000983938
0.000385735
9.0142e-05
1.61493e-05
2.78826e-06
4.63038e-07
8.91828e-08
3.72459e-08
2.97553e-08
2.07923e-08
8.7246e-09
1.08861e-09
5.22667e-11
1.93904e-12
5.1981e-14
1.01695e-15
1.4615e-17
1.53821e-19
1.20944e-21
1.08001e-23
3.67767e-25
2.40688e-26
1.78397e-27
1.36703e-28
1.02104e-29
7.43558e-31
5.28994e-32
3.68327e-33
2.51454e-34
1.68683e-35
1.11478e-36
7.17925e-38
4.59479e-39
2.94145e-40
1.89382e-41
1.23114e-42
8.11193e-44
5.43363e-45
3.70353e-46
2.56389e-47
1.79533e-48
1.26587e-49
8.95493e-51
6.33972e-52
4.48907e-53
3.1832e-54
2.26483e-55
1.61011e-56
1.13853e-57
7.98359e-59
5.54151e-60
3.80282e-61
2.57769e-62
1.72472e-63
1.14092e-64
9.36787e-66
0.000128758
0.000196095
0.0003123
0.000490272
0.000525537
0.000531839
0.000435633
0.000458638
0.00067257
0.000842522
0.00087319
0.000887556
0.000859859
0.0007594
0.000677861
0.000637515
0.000605019
0.000579539
0.0006022
0.000617616
0.000636085
0.000697986
0.000807555
0.000962995
0.00106137
0.00103477
0.000993895
0.000945492
0.000922456
0.000979791
0.00108491
0.00125236
0.00144349
0.00163036
0.00176206
0.00185469
0.00179702
0.00163719
0.00145387
0.00126671
0.00109983
0.00101087
0.00101133
0.00106279
0.000989435
0.000298901
6.60401e-05
1.19476e-05
2.00819e-06
3.60967e-07
6.32881e-08
2.80224e-08
2.13965e-08
1.6867e-08
1.10519e-08
8.12026e-10
3.81303e-11
1.29415e-12
3.23156e-14
5.99715e-16
8.28949e-18
8.49675e-20
6.71513e-22
7.17696e-24
2.96432e-25
1.98222e-26
1.47504e-27
1.13388e-28
8.49559e-30
6.20645e-31
4.42967e-32
3.0944e-33
2.11971e-34
1.427e-35
9.46562e-37
6.11876e-38
3.9322e-39
2.52802e-40
1.63461e-41
1.06702e-42
7.05709e-44
4.74227e-45
3.24047e-46
2.24732e-47
1.57538e-48
1.11141e-49
7.86353e-51
5.56655e-52
3.94066e-53
2.79348e-54
1.98688e-55
1.41205e-56
9.98199e-58
6.99787e-59
4.85634e-60
3.33213e-61
2.25839e-62
1.51099e-63
9.99524e-65
8.20668e-66
4.76323e-05
0.000118083
0.000189249
0.000305672
0.000421926
0.000383206
0.000296583
0.000307855
0.000460572
0.000646575
0.000807918
0.000854524
0.000737973
0.000595641
0.000492493
0.000473105
0.000496472
0.000529772
0.000555136
0.000563854
0.000570661
0.000613821
0.000691345
0.00079849
0.00086606
0.000840827
0.000816627
0.000822205
0.000852053
0.000964845
0.00117147
0.00142298
0.00165121
0.00182414
0.00193844
0.00196549
0.00186596
0.0016846
0.00149649
0.00130655
0.00113572
0.00105507
0.00110283
0.00118165
0.000974074
0.000235354
4.80115e-05
8.44563e-06
1.49536e-06
2.22647e-07
3.88166e-08
1.64102e-08
1.05921e-08
6.81054e-09
2.58054e-09
2.20814e-10
1.13866e-11
4.06157e-13
1.04674e-14
1.98809e-16
2.80324e-18
2.95189e-20
2.61234e-22
4.4994e-24
2.42661e-25
1.65823e-26
1.23823e-27
9.54409e-29
7.16986e-30
5.25172e-31
3.75797e-32
2.6319e-33
1.80747e-34
1.21987e-35
8.11179e-37
5.2562e-38
3.38577e-39
2.18142e-40
1.41315e-41
9.23838e-43
6.11634e-44
4.11221e-45
2.81007e-46
1.94815e-47
1.36482e-48
9.62135e-50
6.80183e-51
4.81114e-52
3.40336e-53
2.41097e-54
1.71378e-55
1.21731e-56
8.60136e-58
6.02765e-59
4.18169e-60
2.86848e-61
1.94374e-62
1.30026e-63
8.60049e-65
7.0608e-66
1.0054e-05
6.26889e-05
9.93121e-05
0.000172388
0.000279003
0.000251031
0.000193
0.000200976
0.000311345
0.000483586
0.000755525
0.000905681
0.000906898
0.000650059
0.000447979
0.000367051
0.000373722
0.000429845
0.000471654
0.000484681
0.000482857
0.0005046
0.000560506
0.0006354
0.00068736
0.000681213
0.000653013
0.000674218
0.000765729
0.000968982
0.00128707
0.00160977
0.00187726
0.002033
0.00207102
0.00202366
0.00188675
0.00170745
0.00151677
0.00132339
0.00115924
0.00109273
0.00119691
0.00130945
0.000918217
0.000192402
3.40061e-05
5.93111e-06
9.63814e-07
1.36831e-07
2.36426e-08
8.27616e-09
4.07805e-09
1.9108e-09
4.82924e-10
4.44607e-11
2.45575e-12
9.25274e-14
2.49912e-15
4.95505e-17
7.30432e-19
8.29922e-21
1.00002e-22
3.23782e-24
2.0621e-25
1.42448e-26
1.06557e-27
8.22417e-29
6.18637e-30
4.53709e-31
3.25047e-32
2.27895e-33
1.56659e-34
1.05814e-35
7.04046e-37
4.56378e-38
2.93951e-39
1.89289e-40
1.22493e-41
7.99502e-43
5.28199e-44
3.54242e-45
2.41425e-46
1.66932e-47
1.16662e-48
8.2064e-50
5.79088e-51
4.08978e-52
2.88941e-53
2.04476e-54
1.45218e-55
1.03072e-56
7.27828e-58
5.09775e-59
3.53499e-60
2.42397e-61
1.64203e-62
1.09816e-63
7.26235e-65
5.96118e-66
2.41123e-06
2.86545e-05
4.77777e-05
8.02574e-05
0.00012932
0.00013432
0.000113574
0.000127669
0.000199617
0.00030793
0.000450721
0.000560639
0.000570574
0.000462971
0.000364204
0.000304052
0.000296891
0.000336796
0.00037712
0.000389723
0.000387633
0.000402856
0.000436298
0.000485034
0.000523282
0.000525293
0.000526961
0.000570356
0.000721573
0.00100358
0.00138174
0.00172864
0.0020441
0.00217741
0.00213586
0.00202956
0.00187245
0.00170696
0.00151895
0.00131986
0.00117027
0.00112457
0.00129036
0.00141823
0.000797518
0.000146594
2.45149e-05
4.16436e-06
6.37068e-07
9.49777e-08
1.94183e-08
5.32959e-09
1.5798e-09
4.8973e-10
9.52887e-11
9.44652e-12
5.8748e-13
2.5118e-14
7.69339e-16
1.72339e-17
2.86963e-19
3.81599e-21
6.37137e-23
2.72849e-24
1.80507e-25
1.24867e-26
9.33825e-28
7.20516e-29
5.41834e-30
3.97265e-31
2.84509e-32
1.9938e-33
1.36971e-34
9.24372e-36
6.14336e-37
3.97661e-38
2.55595e-39
1.64145e-40
1.05866e-41
6.88226e-43
4.5265e-44
3.02136e-45
2.04946e-46
1.4109e-47
9.82232e-49
6.88709e-50
4.8471e-51
3.41602e-52
2.40934e-53
1.70272e-54
1.20791e-55
8.56541e-57
6.0436e-58
4.23018e-59
2.93175e-60
2.00937e-61
1.36063e-62
9.09658e-64
6.01411e-65
4.93538e-66
1.20761e-06
1.22408e-05
2.28405e-05
3.64829e-05
5.59714e-05
6.73523e-05
6.78637e-05
8.58464e-05
0.000135872
0.00021123
0.000307666
0.000394252
0.000425274
0.000407915
0.000359614
0.00031307
0.000292939
0.000293581
0.000305876
0.000308062
0.00030575
0.00031277
0.000338498
0.000370968
0.000396293
0.000406266
0.00044399
0.000524112
0.00072429
0.00104569
0.00142665
0.00177097
0.00208516
0.0022004
0.002123
0.00198879
0.00182238
0.00167579
0.00149661
0.00130529
0.00117193
0.00115361
0.00138399
0.0014981
0.000676997
0.000109153
1.77862e-05
2.88115e-06
4.41811e-07
7.46746e-08
2.08069e-08
7.24708e-09
1.12422e-09
2.04254e-10
4.6388e-11
8.15084e-12
6.97171e-13
3.64948e-14
1.28164e-15
3.15218e-17
5.55643e-19
7.27339e-21
9.09914e-23
2.60916e-24
1.59397e-25
1.0955e-26
8.17822e-28
6.30046e-29
4.73115e-30
3.46393e-31
2.47724e-32
1.73344e-33
1.18894e-34
8.00931e-36
5.31192e-37
3.4303e-38
2.19817e-39
1.40658e-40
9.03309e-42
5.84377e-43
3.82294e-44
2.53755e-45
1.7119e-46
1.17258e-47
8.12722e-49
5.67754e-50
3.98386e-51
2.80093e-52
1.97174e-53
1.39133e-54
9.85762e-56
6.98266e-57
4.9224e-58
3.44277e-59
2.38446e-60
1.63335e-61
1.10547e-62
7.38761e-64
4.88252e-65
4.00549e-66
1.45835e-06
7.03054e-06
1.39523e-05
2.1577e-05
3.11839e-05
4.1133e-05
5.1908e-05
7.96801e-05
0.000138954
0.000232257
0.000334459
0.000409797
0.000442089
0.000441267
0.000410676
0.00036309
0.000319689
0.000286152
0.000272136
0.000265997
0.000254999
0.000256976
0.000278388
0.00030459
0.00032432
0.000349052
0.000407835
0.000530713
0.000763984
0.00110139
0.00145372
0.00176705
0.00203389
0.00212407
0.00205211
0.00190506
0.00174834
0.00161766
0.00144414
0.0012765
0.00116488
0.00118557
0.00147414
0.00151653
0.000545506
8.12655e-05
1.29367e-05
2.03957e-06
3.19299e-07
6.28706e-08
1.85294e-08
9.57913e-09
1.24213e-09
1.89458e-10
8.19702e-11
2.93557e-11
2.51541e-12
1.25921e-13
4.21964e-15
9.92497e-17
1.67228e-18
2.03999e-20
1.95828e-22
2.90531e-24
1.39431e-25
9.40778e-27
7.00465e-28
5.38524e-29
4.03607e-30
2.94957e-31
2.10562e-32
1.47078e-33
1.00696e-34
6.77051e-36
4.48101e-37
2.88699e-38
1.84495e-39
1.17678e-40
7.52931e-42
4.85046e-43
3.15849e-44
2.08636e-45
1.40076e-46
9.55144e-48
6.59366e-49
4.59047e-50
3.21193e-51
2.25296e-52
1.58299e-53
1.11527e-54
7.89134e-56
5.5835e-57
3.93221e-58
2.74789e-59
1.90179e-60
1.30188e-61
8.8063e-63
5.88208e-64
3.88584e-65
3.18658e-66
2.69379e-06
9.19915e-06
1.78236e-05
2.70575e-05
3.60001e-05
4.90117e-05
7.67566e-05
0.000133915
0.000225702
0.000333279
0.000410892
0.000444311
0.000451458
0.000451446
0.000440887
0.000407933
0.00035932
0.000310243
0.000275521
0.000251452
0.000235816
0.000236071
0.00025169
0.000274436
0.000299945
0.000348995
0.00043233
0.000581227
0.00082747
0.00114974
0.00146479
0.00176305
0.00195542
0.00199473
0.00192413
0.00178505
0.00165023
0.00152944
0.00137236
0.00123472
0.001158
0.00122568
0.00155099
0.00144507
0.000416663
6.02727e-05
9.50756e-06
1.50326e-06
2.41262e-07
4.56831e-08
1.64564e-08
7.84184e-09
1.247e-09
1.9174e-10
1.35277e-10
1.07241e-10
7.66255e-12
3.42172e-13
1.06131e-14
2.35595e-16
3.78652e-18
4.40581e-20
3.7924e-22
3.57819e-24
1.19224e-25
7.76807e-27
5.7663e-28
4.42422e-29
3.30962e-30
2.4145e-31
1.7209e-32
1.20028e-33
8.20613e-35
5.51016e-36
3.64196e-37
2.34289e-38
1.49492e-39
9.51846e-41
6.07797e-42
3.90652e-43
2.53725e-44
1.67127e-45
1.11877e-46
7.60651e-48
5.23663e-49
3.63663e-50
2.53893e-51
1.77749e-52
1.24684e-53
8.7717e-55
6.19863e-56
4.38079e-57
3.08203e-58
2.15181e-59
1.48804e-60
1.01791e-61
6.88095e-63
4.59339e-64
3.03294e-65
2.48599e-66
5.65778e-06
1.86832e-05
3.54592e-05
5.59136e-05
7.76641e-05
0.000108199
0.000168725
0.000260424
0.000355372
0.000416056
0.000428571
0.000416895
0.000406963
0.000410129
0.000421098
0.000418927
0.000391217
0.000348702
0.000308398
0.000279344
0.000263356
0.000257762
0.000265978
0.000286259
0.000323669
0.000398945
0.000507015
0.000666783
0.000899424
0.00118115
0.00145192
0.00171387
0.00184046
0.00183873
0.0017599
0.00164332
0.00153354
0.00142391
0.00129277
0.00119135
0.00116133
0.00128038
0.0015952
0.00127678
0.000305104
4.43243e-05
7.01533e-06
1.08716e-06
1.62442e-07
3.28838e-08
1.69365e-08
8.09545e-09
1.00185e-09
1.74961e-10
1.13227e-10
6.27747e-11
6.53089e-12
3.34642e-13
1.11951e-14
2.60914e-16
4.33211e-18
5.14425e-20
4.41498e-22
3.62456e-24
9.64304e-26
6.09296e-27
4.51124e-28
3.4556e-29
2.58128e-30
1.88078e-31
1.33911e-32
9.33239e-34
6.37682e-35
4.2804e-36
2.82881e-37
1.81955e-38
1.16131e-39
7.39741e-41
4.72593e-42
3.03896e-43
1.97445e-44
1.30069e-45
8.70514e-47
5.91531e-48
4.06885e-49
2.82261e-50
1.96821e-51
1.37619e-52
9.64117e-54
6.7744e-55
4.78153e-56
3.37546e-57
2.37224e-58
1.65465e-59
1.14323e-60
7.81404e-62
5.27831e-63
3.52118e-64
2.32358e-65
1.90348e-66
1.24252e-05
4.10112e-05
7.42153e-05
0.000115
0.000164884
0.000228667
0.000316892
0.000397695
0.000431866
0.000415373
0.000374531
0.000341583
0.000329002
0.000339003
0.000365852
0.000394329
0.000400756
0.000383067
0.000354995
0.000334489
0.000324434
0.00031975
0.000326293
0.000345402
0.00039286
0.000491882
0.000617436
0.000767502
0.000967032
0.00119404
0.00141239
0.00161159
0.00168931
0.00166669
0.00158842
0.00149474
0.00140196
0.00131394
0.00121583
0.00115489
0.00117968
0.00134698
0.00159313
0.00104052
0.000221503
3.24595e-05
5.18363e-06
7.85398e-07
1.13539e-07
2.39168e-08
1.11586e-08
3.54213e-09
5.0877e-10
1.41825e-10
1.32246e-10
1.03323e-10
7.46316e-12
3.34566e-13
1.039e-14
2.30748e-16
3.70924e-18
4.30887e-20
3.63385e-22
2.87184e-24
7.20606e-26
4.50978e-27
3.33424e-28
2.55127e-29
1.90415e-30
1.38661e-31
9.87017e-33
6.87953e-34
4.70332e-35
3.16021e-36
2.09157e-37
1.3476e-38
8.62294e-40
5.50977e-41
3.53249e-42
2.2802e-43
1.48715e-44
9.83144e-46
6.5994e-47
4.49418e-48
3.09544e-49
2.14853e-50
1.49807e-51