/*--------------------------------*- C++ -*----------------------------------*\
  =========                 |
  \\      /  F ield         | OpenFOAM: The Open Source CFD Toolbox
   \\    /   O peration     | Website:  https://openfoam.org
    \\  /    A nd           | Version:  6
     \\/     M anipulation  |
\*---------------------------------------------------------------------------*/
FoamFile
{
    version     2.0;
    format      ascii;
    class       volScalarField;
    location    "0.005";
    object      Yc;
}
// * * * * * * * * * * * * * * * * * * * * * * * * * * * * * * * * * * * * * //

dimensions      [0 0 0 0 0 0 0];

internalField   nonuniform List<scalar> 
8000
(
1.76477e-11
8.95894e-11
2.77018e-10
6.80529e-10
1.6517e-09
4.19233e-09
9.90144e-09
2.05955e-08
3.90756e-08
7.1209e-08
1.20222e-07
1.91557e-07
3.01083e-07
4.87378e-07
9.09472e-07
2.0124e-06
4.93026e-06
1.24586e-05
2.93633e-05
7.5199e-05
0.000232832
0.000866837
0.0035437
0.0102124
0.0250729
0.0452489
0.0665234
0.0894804
0.111326
0.130197
0.145731
0.156718
0.162706
0.165912
0.168052
0.17039
0.17299
0.175731
0.178417
0.181159
0.183924
0.18682
0.190046
0.191712
0.179873
0.123427
0.070556
0.0507285
0.0292784
0.00903194
0.00148418
0.000156135
1.15945e-05
6.33254e-07
2.70277e-08
9.23559e-10
2.5301e-11
5.50024e-13
9.40916e-15
1.26882e-16
1.41732e-18
1.81506e-20
5.49947e-22
3.0673e-23
1.91123e-24
1.21879e-25
8.59046e-27
6.51874e-28
4.93868e-29
3.73018e-30
2.81436e-31
2.12396e-32
1.60461e-33
1.21417e-34
9.20006e-36
6.88668e-37
5.16431e-38
3.87939e-39
2.91268e-40
2.17975e-41
1.62283e-42
1.20072e-43
8.82146e-45
6.42704e-46
4.63772e-47
3.3124e-48
2.34304e-49
1.64356e-50
1.14575e-51
7.96615e-53
5.54512e-54
3.85537e-55
2.66652e-56
1.82955e-57
1.24318e-58
8.35657e-60
5.55212e-61
3.64408e-62
2.36574e-63
1.8977e-64
6.69526e-11
3.295e-10
7.54398e-10
1.68267e-09
3.06481e-09
7.2977e-09
1.8134e-08
4.08317e-08
8.10979e-08
1.51999e-07
2.53693e-07
3.87536e-07
5.76307e-07
8.84614e-07
1.52116e-06
3.09326e-06
7.17234e-06
1.76005e-05
3.85651e-05
8.68479e-05
0.00023931
0.000923921
0.00648913
0.012238
0.0265313
0.0440977
0.0634074
0.0874227
0.110401
0.129516
0.145264
0.156428
0.16243
0.165518
0.167566
0.169977
0.172745
0.17564
0.178456
0.181308
0.184062
0.186958
0.190112
0.191742
0.180313
0.125129
0.0649306
0.0425853
0.022968
0.00685095
0.00116573
0.000126359
9.44314e-06
5.21471e-07
2.2564e-08
7.82633e-10
2.17506e-11
4.7923e-13
8.30428e-15
1.13518e-16
1.29368e-18
1.73092e-20
5.46896e-22
3.07149e-23
1.91254e-24
1.21885e-25
8.58887e-27
6.51656e-28
4.93573e-29
3.7263e-30
2.80977e-31
2.11904e-32
1.59969e-33
1.20954e-34
9.15833e-36
6.8508e-37
5.13437e-38
3.85496e-39
2.89315e-40
2.16444e-41
1.61105e-42
1.19181e-43
8.75517e-45
6.37841e-46
4.60254e-47
3.2873e-48
2.32535e-49
1.63121e-50
1.13723e-51
7.90773e-53
5.50521e-54
3.82797e-55
2.64772e-56
1.81672e-57
1.23449e-58
8.2983e-60
5.51351e-61
3.61883e-62
2.34953e-63
1.88613e-64
2.62532e-10
2.138e-09
2.60556e-09
7.5463e-09
8.23351e-09
1.66788e-08
4.19069e-08
1.03426e-07
2.29821e-07
4.41052e-07
7.4727e-07
1.08522e-06
1.46183e-06
2.16817e-06
3.31321e-06
6.23823e-06
1.34358e-05
3.12591e-05
6.55495e-05
0.000121386
0.000263972
0.000781632
0.0032702
0.00830756
0.0201258
0.0379306
0.0535038
0.0818646
0.107499
0.127592
0.143975
0.155662
0.16175
0.164648
0.16653
0.169115
0.1723
0.175532
0.178592
0.181576
0.184383
0.187245
0.190264
0.191813
0.181041
0.127618
0.0570311
0.0303582
0.0131076
0.00412517
0.000635663
6.47927e-05
5.04594e-06
2.97113e-07
1.34909e-08
4.85773e-10
1.39198e-11
3.14939e-13
5.59568e-15
7.87225e-17
9.47966e-19
1.46692e-20
5.30534e-22
3.05595e-23
1.90595e-24
1.21539e-25
8.58273e-27
6.5143e-28
4.93197e-29
3.72042e-30
2.80214e-31
2.11036e-32
1.5907e-33
1.20085e-34
9.0787e-36
6.78141e-37
5.07585e-38
3.80683e-39
2.8544e-40
2.13387e-41
1.58739e-42
1.17384e-43
8.62078e-45
6.27945e-46
4.53069e-47
3.2359e-48
2.28904e-49
1.60584e-50
1.1197e-51
7.7874e-53
5.42291e-54
3.77149e-55
2.60901e-56
1.79031e-57
1.21663e-58
8.17872e-60
5.43437e-61
3.5671e-62
2.31624e-63
1.86153e-64
1.93175e-10
1.50153e-09
4.44683e-09
9.26195e-09
1.9198e-08
4.28019e-08
1.01378e-07
2.42585e-07
5.71054e-07
1.21909e-06
2.30982e-06
3.15556e-06
3.91685e-06
5.00702e-06
7.3421e-06
1.30814e-05
2.67512e-05
6.11721e-05
0.000124551
0.000202032
0.000342297
0.000748173
0.00238038
0.00608808
0.0152753
0.0331082
0.0558014
0.080407
0.107081
0.128727
0.14272
0.154542
0.160639
0.163376
0.165114
0.167932
0.171833
0.175571
0.178979
0.182055
0.18488
0.187686
0.190491
0.191916
0.181848
0.126839
0.0517079
0.0205004
0.00748671
0.00201117
0.000285091
2.83024e-05
2.29729e-06
1.41574e-07
6.66235e-09
2.473e-10
7.28024e-12
1.68941e-13
3.08316e-15
4.50976e-17
5.99489e-19
1.18471e-20
5.09712e-22
3.02545e-23
1.89344e-24
1.21008e-25
8.57655e-27
6.51293e-28
4.92833e-29
3.71364e-30
2.7927e-31
2.09927e-32
1.579e-33
1.1894e-34
8.97283e-36
6.68862e-37
4.9972e-38
3.74188e-39
2.80197e-40
2.0924e-41
1.55523e-42
1.14935e-43
8.43731e-45
6.1441e-46
4.43225e-47
3.16537e-48
2.23916e-49
1.57094e-50
1.09553e-51
7.62122e-53
5.30889e-54
3.69305e-55
2.55515e-56
1.75353e-57
1.19173e-58
8.01189e-60
5.32389e-61
3.49483e-62
2.26963e-63
1.82621e-64
4.2332e-10
4.43298e-09
1.99447e-08
3.36623e-08
7.60238e-08
1.43834e-07
3.11067e-07
6.6073e-07
1.40086e-06
2.88057e-06
6.67096e-06
8.33571e-06
8.92697e-06
1.13416e-05
1.66564e-05
2.74683e-05
5.44849e-05
0.00011691
0.00026039
0.000367981
0.000514957
0.000888233
0.00210848
0.00522325
0.013276
0.0295673
0.0514137
0.0698297
0.0965739
0.118863
0.138548
0.152581
0.159004
0.161957
0.163803
0.166465
0.171586
0.175969
0.179686
0.182777
0.185619
0.188316
0.190771
0.192056
0.18264
0.127868
0.0486682
0.015467
0.00446331
0.00101201
0.00013237
1.28873e-05
1.04933e-06
6.47081e-08
3.06383e-09
1.14973e-10
3.43254e-12
8.10555e-14
1.51738e-15
2.3436e-17
3.66745e-19
9.84181e-21
4.91628e-22
2.98857e-23
1.87779e-24
1.20381e-25
8.56731e-27
6.50893e-28
4.92221e-29
3.70431e-30
2.78061e-31
2.0855e-32
1.56471e-33
1.17555e-34
8.84551e-36
6.57748e-37
4.90316e-38
3.66432e-39
2.7394e-40
2.04293e-41
1.51688e-42
1.12014e-43
8.21829e-45
5.98239e-46
4.31458e-47
3.08098e-48
2.17941e-49
1.52908e-50
1.06648e-51
7.42093e-53
5.17093e-54
3.59785e-55
2.48962e-56
1.70871e-57
1.16135e-58
7.80808e-60
5.1888e-61
3.40639e-62
2.21249e-63
1.78205e-64
6.55771e-10
7.42102e-09
3.31136e-08
9.33102e-08
2.20089e-07
4.9678e-07
9.83784e-07
1.89268e-06
3.52928e-06
5.98066e-06
9.27154e-06
1.33644e-05
1.76345e-05
2.47081e-05
3.64278e-05
5.57628e-05
0.000105635
0.000215101
0.000565858
0.000705419
0.00088716
0.00124917
0.00230668
0.00584655
0.0142192
0.0279892
0.046127
0.0684091
0.089302
0.111585
0.133314
0.151346
0.15734
0.160517
0.163482
0.167356
0.172193
0.176923
0.180818
0.183806
0.186655
0.189207
0.191034
0.192243
0.183321
0.131446
0.0485092
0.0135031
0.00317885
0.000602035
7.36948e-05
6.95815e-06
5.38547e-07
3.18361e-08
1.46808e-09
5.43752e-11
1.61979e-12
3.85992e-14
7.4368e-16
1.24934e-17
2.45543e-19
8.70238e-21
4.7765e-22
2.94837e-23
1.8595e-24
1.19602e-25
8.54477e-27
6.49378e-28
4.90731e-29
3.68803e-30
2.76301e-31
2.06734e-32
1.54694e-33
1.15892e-34
8.69609e-36
6.44909e-37
4.79566e-38
3.5763e-39
2.66875e-40
1.98728e-41
1.47383e-42
1.08739e-43
7.97288e-45
5.8012e-46
4.18269e-47
2.98632e-48
2.11231e-49
1.48201e-50
1.03376e-51
7.19459e-53
5.01442e-54
3.48952e-55
2.4149e-56
1.65752e-57
1.1266e-58
7.57483e-60
5.03407e-61
3.30502e-62
2.14689e-63
1.73062e-64
2.33684e-09
2.69187e-08
1.14122e-07
3.32901e-07
8.01203e-07
1.79144e-06
3.24685e-06
5.776e-06
9.87868e-06
1.5297e-05
2.17008e-05
3.0726e-05
4.07256e-05
5.57955e-05
7.80535e-05
0.000110344
0.000194217
0.000420546
0.00118363
0.00134296
0.00163229
0.00202869
0.00316936
0.00753834
0.0193698
0.0289425
0.0411834
0.0596754
0.0820141
0.106856
0.129703
0.145978
0.154099
0.159121
0.163364
0.167995
0.173234
0.178383
0.182503
0.185095
0.188044
0.19038
0.192247
0.192593
0.183816
0.13627
0.0491409
0.0126513
0.00261691
0.000442109
5.1771e-05
4.68564e-06
3.34934e-07
1.85607e-08
8.17762e-10
2.95427e-11
8.77546e-13
2.13849e-14
4.36412e-16
8.27455e-18
1.99333e-19
8.18993e-21
4.6668e-22
2.9028e-23
1.83656e-24
1.18482e-25
8.49168e-27
6.45449e-28
4.87406e-29
3.65807e-30
2.73533e-31
2.04184e-32
1.52385e-33
1.13847e-34
8.51898e-36
6.30098e-37
4.67398e-38
3.47801e-39
2.59065e-40
1.92618e-41
1.4268e-42
1.05171e-43
7.70594e-45
5.60425e-46
4.03936e-47
2.88339e-48
2.0393e-49
1.43073e-50
9.9804e-52
6.94678e-53
4.84247e-54
3.37021e-55
2.33247e-56
1.60098e-57
1.0882e-58
7.31682e-60
4.86282e-61
3.19278e-62
2.07417e-63
1.67302e-64
1.30818e-08
1.2566e-07
4.76617e-07
1.29406e-06
2.91306e-06
6.19865e-06
1.02601e-05
1.7492e-05
2.72326e-05
4.18662e-05
5.31661e-05
7.34039e-05
9.43296e-05
0.000129189
0.000164058
0.0002123
0.000328495
0.000813586
0.00267338
0.00265918
0.0030645
0.00368081
0.00483851
0.00912412
0.0171063
0.0251284
0.0370045
0.0560658
0.0815699
0.108171
0.129185
0.143633
0.152304
0.158395
0.163633
0.169001
0.174821
0.180393
0.184789
0.187547
0.189898
0.191756
0.193404
0.192994
0.184059
0.140415
0.0486748
0.0117358
0.00237121
0.000370546
4.17613e-05
3.58616e-06
2.41761e-07
1.28284e-08
5.57112e-10
2.06772e-11
6.61248e-13
1.80517e-14
4.20577e-16
8.87699e-18
2.14972e-19
8.26469e-21
4.58453e-22
2.84743e-23
1.80535e-24
1.16756e-25
8.38778e-27
6.3758e-28
4.81132e-29
3.60651e-30
2.69216e-31
2.00539e-32
1.49312e-33
1.11272e-34
8.30552e-36
6.12825e-37
4.53556e-38
3.36825e-39
2.5046e-40
1.85953e-41
1.37584e-42
1.01325e-43
7.41895e-45
5.39284e-46
3.88563e-47
2.77299e-48
1.96093e-49
1.37563e-50
9.59598e-52
6.67953e-53
4.65655e-54
3.24095e-55
2.24305e-56
1.53961e-57
1.04649e-58
7.0365e-60
4.6767e-61
3.07074e-62
1.99505e-63
1.60993e-64
6.38081e-08
5.7125e-07
1.89808e-06
4.7513e-06
9.9599e-06
1.98666e-05
3.04898e-05
5.16205e-05
7.26746e-05
0.000109779
0.000132876
0.00017546
0.000216355
0.000278435
0.000331157
0.000405212
0.000580354
0.00136132
0.00579816
0.00519266
0.00596294
0.00722005
0.00808678
0.0125431
0.0181547
0.0259301
0.0388742
0.0596205
0.0889863
0.114731
0.129461
0.142715
0.151647
0.158517
0.164487
0.170541
0.176904
0.182995
0.187677
0.19035
0.191887
0.193154
0.194584
0.193417
0.183576
0.139824
0.0457754
0.0111917
0.00209535
0.000316739
3.38637e-05
2.794e-06
1.86708e-07
1.01588e-08
4.88911e-10
2.18918e-11
8.76246e-13
2.92435e-14
7.80242e-16
1.68208e-17
3.37651e-19
9.46246e-21
4.56653e-22
2.77893e-23
1.76194e-24
1.14151e-25
8.21411e-27
6.24356e-28
4.70878e-29
3.52607e-30
2.62844e-31
1.9546e-32
1.45253e-33
1.08028e-34
8.04687e-36
5.92559e-37
4.37732e-38
3.24528e-39
2.40966e-40
1.78684e-41
1.32073e-42
9.71877e-44
7.11151e-45
5.16691e-46
3.72156e-47
2.65521e-48
1.87731e-49
1.31682e-50
9.18517e-52
6.39349e-53
4.45719e-54
3.10219e-55
2.14698e-56
1.47365e-57
1.00165e-58
6.73508e-60
4.47651e-61
2.93947e-62
1.90992e-63
1.54173e-64
3.40039e-07
2.60771e-06
7.37495e-06
1.66702e-05
3.27113e-05
6.09757e-05
8.75123e-05
0.000138607
0.000200483
0.000272786
0.000332029
0.000422109
0.00052353
0.000618715
0.000682759
0.000807236
0.00107769
0.00250286
0.00815423
0.00865273
0.0112444
0.0134912
0.0150465
0.0194013
0.0237502
0.0318926
0.0466471
0.0679095
0.0949473
0.117954
0.132706
0.144266
0.152305
0.159569
0.16615
0.172427
0.179474
0.186221
0.191136
0.193711
0.1947
0.195548
0.195911
0.193842
0.182718
0.134435
0.0428389
0.00988835
0.00177818
0.000262197
2.73043e-05
2.25703e-06
1.55169e-07
9.87366e-09
6.45141e-10
3.94774e-11
1.95731e-12
7.34317e-14
2.05277e-15
4.32382e-17
7.33819e-19
1.35666e-20
4.74185e-22
2.69954e-23
1.70342e-24
1.10469e-25
7.95736e-27
6.04812e-28
4.55947e-29
3.41184e-30
2.54082e-31
1.88721e-32
1.40059e-33
1.04017e-34
7.737e-36
5.68929e-37
4.19705e-38
3.10779e-39
2.30507e-40
1.70767e-41
1.26121e-42
9.27473e-44
6.78296e-45
4.92613e-46
3.54698e-47
2.53002e-48
1.78846e-49
1.25431e-50
8.74834e-52
6.08906e-53
4.2448e-54
2.95424e-55
2.04452e-56
1.40328e-57
9.53809e-59
6.41345e-60
4.26288e-61
2.79935e-62
1.81903e-63
1.46873e-64
2.0305e-06
1.27636e-05
3.04985e-05
5.95853e-05
0.000107119
0.000187198
0.000256365
0.000366439
0.000543842
0.000694444
0.000877913
0.00106197
0.00130362
0.00146599
0.00154505
0.00168974
0.00197761
0.00364474
0.00895876
0.0134834
0.019069
0.0239061
0.0263799
0.0307742
0.0341623
0.0431911
0.0598283
0.080067
0.103792
0.122273
0.134998
0.145019
0.153511
0.161538
0.168899
0.175854
0.182694
0.189898
0.195089
0.197629
0.198306
0.197966
0.197269
0.194225
0.181358
0.1274
0.0392129
0.00863911
0.0015264
0.000219633
2.24387e-05
1.86613e-06
1.44368e-07
1.34014e-08
1.30894e-09
9.87518e-11
5.31443e-12
2.04147e-13
5.68129e-15
1.16304e-16
1.80435e-18
2.47007e-20
5.40769e-22
2.62196e-23
1.62893e-24
1.05634e-25
7.61359e-27
5.78678e-28
4.36157e-29
3.2626e-30
2.4285e-31
1.80271e-32
1.33698e-33
9.92217e-35
7.37475e-36
5.41869e-37
3.99439e-38
2.9556e-39
2.19074e-40
1.622e-41
1.19729e-42
8.80054e-44
6.43353e-45
4.67076e-46
3.36216e-47
2.39762e-48
1.69454e-49
1.18826e-50
8.28661e-52
5.76715e-53
4.02007e-54
2.79766e-55
1.93604e-56
1.32878e-57
9.03157e-59
6.07292e-60
4.03667e-61
2.65096e-62
1.72276e-63
1.39125e-64
1.42602e-05
7.14205e-05
0.000144619
0.00023451
0.000379189
0.000576342
0.000748633
0.00103375
0.00161704
0.00205713
0.00258754
0.00300545
0.00363772
0.00376622
0.00374093
0.00382419
0.00395862
0.00587939
0.0113171
0.0181883
0.0283294
0.0353716
0.0411979
0.0456444
0.048295
0.0580323
0.0750605
0.0929625
0.112503
0.125889
0.136696
0.146555
0.155658
0.16421
0.172661
0.180632
0.186652
0.194395
0.19954
0.201951
0.202033
0.200196
0.198502
0.194537
0.179425
0.118001
0.0340825
0.00750597
0.00129807
0.000179051
1.79678e-05
1.59639e-06
1.61761e-07
2.5221e-08
3.24072e-09
2.62051e-10
1.41262e-11
5.32783e-13
1.44586e-14
2.87017e-16
4.23086e-18
4.9479e-20
7.02e-22
2.56851e-23
1.53997e-24
9.97193e-26
7.18935e-27
5.46473e-28
4.119e-29
3.08125e-30
2.29356e-31
1.70257e-32
1.26272e-33
9.37088e-35
6.96468e-36
5.11676e-37
3.77126e-38
2.78997e-39
2.06751e-40
1.53037e-41
1.12934e-42
8.29874e-44
6.06502e-45
4.40208e-46
3.16801e-47
2.25869e-48
1.59604e-49
1.119e-50
7.80252e-52
5.42959e-53
3.78438e-54
2.6334e-55
1.82224e-56
1.25062e-57
8.50016e-59
5.71562e-60
3.7993e-61
2.49523e-62
1.62171e-63
1.30984e-64
0.000124282
0.000417027
0.000758882
0.0010322
0.00143091
0.00182178
0.0023125
0.0033553
0.00774833
0.00731518
0.00805492
0.00870813
0.00998038
0.0101073
0.00959436
0.00919853
0.00899251
0.0110106
0.0155893
0.0253364
0.0401516
0.0498441
0.0576557
0.061283
0.0642856
0.0746572
0.0909762
0.106003
0.118787
0.129374
0.138999
0.149029
0.158828
0.16852
0.177584
0.186036
0.191689
0.199174
0.204333
0.206518
0.205802
0.202604
0.199851
0.19475
0.176815
0.105139
0.0281305
0.00633785
0.00110336
0.000147297
1.45368e-05
1.3667e-06
2.16214e-07
5.44136e-08
7.9851e-09
6.45189e-10
3.32692e-11
1.20198e-12
3.13785e-14
6.00873e-16
8.51168e-18
9.17617e-20
9.786e-22
2.55004e-23
1.43964e-24
9.2932e-26
6.70069e-27
5.0942e-28
3.84083e-29
2.87434e-30
2.14064e-31
1.58998e-32
1.17997e-33
8.76244e-35
6.5164e-36
4.78972e-37
3.53166e-38
2.61348e-39
1.93705e-40
1.43387e-41
1.05809e-42
7.77428e-44
5.68082e-45
4.12245e-46
2.96618e-47
2.11437e-48
1.49378e-49
1.04712e-50
7.30013e-52
5.07927e-53
3.53975e-54
2.4629e-55
1.70412e-56
1.16949e-57
7.94851e-59
5.34469e-60
3.55284e-61
2.3335e-62
1.51673e-63
1.2252e-64
0.00125862
0.002373
0.00387814
0.00524604
0.00632871
0.00701934
0.00777212
0.00970775
0.013506
0.0163071
0.0202268
0.0219981
0.0244433
0.0251265
0.0227843
0.020498
0.0196835
0.0199603
0.0234224
0.0352208
0.053009
0.0648375
0.0730151
0.0767236
0.0807782
0.0916996
0.102742
0.114658
0.12377
0.132444
0.14205
0.152747
0.162793
0.173794
0.183427
0.192004
0.19781
0.204728
0.209516
0.211178
0.209638
0.205373
0.201428
0.194822
0.173284
0.0902118
0.0248925
0.00512702
0.000893482
0.000117157
1.14757e-05
1.17008e-06
2.56281e-07
1.06117e-07
1.79221e-08
1.37464e-09
6.48437e-11
2.19719e-12
5.45391e-14
1.00118e-15
1.36426e-17
1.39717e-19
1.277e-21
2.52354e-23
1.33081e-24
8.55735e-26
6.1702e-27
4.69224e-28
3.53961e-29
2.65089e-30
1.97607e-31
1.46934e-32
1.09172e-33
8.1167e-35
6.04304e-36
4.44608e-37
3.28109e-38
2.42967e-39
1.80166e-40
1.33404e-41
9.84549e-43
7.23401e-44
5.28562e-45
3.83512e-46
2.75894e-47
1.96627e-48
1.38887e-49
9.73384e-51
6.78479e-52
4.71992e-53
3.28881e-54
2.288e-55
1.58295e-56
1.08626e-57
7.38253e-59
4.96409e-60
3.29991e-61
2.16749e-62
1.40896e-63
1.13825e-64
0.0146913
0.0122654
0.0200095
0.0216806
0.0228165
0.019497
0.0215597
0.024953
0.0259685
0.0304865
0.0372565
0.0419861
0.0474909
0.0496183
0.045648
0.0397484
0.0351084
0.031463
0.0342792
0.047058
0.0668011
0.0789847
0.0866567
0.0896599
0.0941233
0.103507
0.111825
0.121285
0.128861
0.13577
0.146402
0.157583
0.168257
0.180036
0.189891
0.198251
0.20446
0.210952
0.214747
0.21561
0.213397
0.208021
0.20275
0.194742
0.168607
0.0753699
0.0211632
0.00415709
0.000727542
9.32311e-05
9.01993e-06
9.79053e-07
2.61278e-07
1.313e-07
3.3716e-08
2.14525e-09
9.54645e-11
3.08119e-12
7.31269e-14
1.28724e-15
1.68643e-17
1.65723e-19
1.40236e-21
2.4028e-23
1.2158e-24
7.79825e-26
5.62303e-27
4.27776e-28
3.22921e-29
2.42087e-30
1.80686e-31
1.34546e-32
1.00123e-33
7.4556e-35
5.55913e-36
4.09532e-37
3.02568e-38
2.24255e-39
1.66399e-40
1.23262e-41
9.09908e-43
6.68602e-44
4.88498e-45
3.54396e-46
2.54899e-47
1.81625e-48
1.28261e-49
8.98698e-51
6.26278e-52
4.35589e-53
3.03458e-54
2.1108e-55
1.46017e-56
1.00192e-57
6.80891e-59
4.57829e-60
3.0435e-61
1.99917e-62
1.29967e-63
1.05004e-64
0.110416
0.056592
0.054354
0.0464634
0.0512853
0.043976
0.04956
0.0525295
0.048157
0.0486961
0.0499497
0.0587156
0.0714504
0.0796482
0.0777188
0.0707772
0.0615918
0.0532751
0.0539487
0.0659788
0.084003
0.0956474
0.101947
0.103083
0.106278
0.11303
0.120776
0.129233
0.137531
0.145872
0.156022
0.166657
0.177202
0.189027
0.198033
0.206192
0.212592
0.218558
0.221355
0.220826
0.217907
0.211099
0.204498
0.194434
0.16156
0.06025
0.0164297
0.00319314
0.000534862
6.6996e-05
6.45027e-06
7.31995e-07
2.16326e-07
1.24745e-07
5.03037e-08
3.15643e-09
1.33174e-10
4.01371e-12
8.85549e-14
1.45072e-15
1.77582e-17
1.63768e-19
1.30142e-21
2.13523e-23
1.07626e-24
6.90184e-26
4.97728e-27
3.78854e-28
2.86273e-29
2.14915e-30
1.60686e-31
1.1989e-32
8.94057e-34
6.67168e-35
4.98459e-36
3.67838e-37
2.72173e-38
2.01965e-39
1.49986e-40
1.11164e-41
8.20828e-43
6.03186e-44
4.40667e-45
3.19632e-46
2.29834e-47
1.63717e-48
1.15577e-49
8.09567e-51
5.63993e-52
3.9216e-53
2.73133e-54
1.89943e-55
1.31371e-56
9.01291e-58
6.12442e-59
4.11777e-60
2.73727e-61
1.79804e-62
1.16898e-63
9.44492e-65
0.223244
0.124258
0.114155
0.0999903
0.0858277
0.0754373
0.0845599
0.0870084
0.077308
0.0732544
0.0788043
0.0827253
0.0951564
0.107536
0.11159
0.108209
0.0960952
0.0824802
0.0793226
0.0872608
0.10325
0.114641
0.1182
0.117677
0.118309
0.125336
0.133221
0.141159
0.150391
0.158888
0.168943
0.178489
0.188652
0.199256
0.207852
0.216014
0.221935
0.22736
0.228842
0.226706
0.222776
0.214889
0.206321
0.193599
0.151831
0.0475407
0.0122133
0.00244009
0.000389007
4.73203e-05
4.42372e-06
4.50072e-07
9.50567e-08
4.13759e-08
1.09543e-08
8.73533e-10
4.18665e-11
1.36845e-12
3.20163e-14
5.49282e-16
7.00114e-18
6.8194e-20
6.58765e-22
1.63976e-23
9.22244e-25
5.94523e-26
4.28813e-27
3.26581e-28
2.47039e-29
1.85745e-30
1.39137e-31
1.04032e-32
7.77527e-34
5.81481e-35
4.35321e-36
3.21788e-37
2.3844e-38
1.77121e-39
1.31628e-40
9.75929e-42
7.20688e-43
5.29528e-44
3.86745e-45
2.8041e-46
2.01537e-47
1.43491e-48
1.01249e-49
7.08866e-51
4.93617e-52
3.43085e-53
2.38863e-54
1.66055e-55
1.14816e-56
7.87532e-58
5.35043e-59
3.5969e-60
2.39082e-61
1.5704e-62
1.021e-63
8.24934e-65
0.300226
0.211264
0.191258
0.169315
0.141285
0.123391
0.130913
0.132172
0.122096
0.121583
0.124741
0.131933
0.139671
0.149104
0.150216
0.143298
0.12993
0.114132
0.106223
0.110392
0.122826
0.131384
0.133744
0.133444
0.134995
0.142388
0.15082
0.158866
0.167561
0.174487
0.182195
0.190072
0.19971
0.209069
0.218327
0.225434
0.231646
0.23629
0.236231
0.232621
0.227249
0.218172
0.207696
0.192143
0.137863
0.037426
0.00923507
0.00178012
0.000279988
3.32132e-05
3.01008e-06
2.69472e-07
3.7746e-08
1.04707e-08
2.05974e-09
1.74285e-10
8.893e-12
3.07251e-13
7.5605e-15
1.36162e-16
1.83776e-18
2.04185e-20
3.16078e-22
1.29761e-23
7.88869e-25
5.10186e-26
3.67989e-27
2.80355e-28
2.12233e-29
1.59752e-30
1.19828e-31
8.97285e-33
6.71652e-34
5.03033e-35
3.77074e-36
2.79007e-37
2.06894e-38
1.53756e-39
1.14282e-40
8.47241e-42
6.2547e-43
4.59357e-44
3.35308e-45
2.42965e-46
1.74511e-47
1.24169e-48
8.75604e-50
6.12668e-51
4.26394e-52
2.96213e-53
2.06133e-54
1.4324e-55
9.90042e-57
6.78866e-58
4.61096e-59
3.09914e-60
2.05963e-61
1.35271e-62
8.79429e-64
7.10506e-65
0.325028
0.296956
0.283665
0.256637
0.219152
0.19236
0.193075
0.192647
0.185589
0.19327
0.202181
0.215467
0.220712
0.21851
0.203477
0.186269
0.16801
0.147299
0.138084
0.136166
0.145547
0.152231
0.151457
0.150926
0.153106
0.161682
0.171561
0.17863
0.185131
0.190541
0.195757
0.202142
0.210958
0.2192
0.228079
0.234982
0.241318
0.24456
0.243606
0.238508
0.231636
0.221108
0.208213
0.190512
0.120725
0.0310911
0.00678559
0.00131643
0.000202846
2.35157e-05
2.08951e-06
1.70065e-07
1.61081e-08
2.56661e-09
3.74533e-10
3.07673e-11
1.59996e-12
5.71384e-14
1.46399e-15
2.77904e-17
4.15916e-19
6.4567e-21
1.96211e-22
1.07965e-23
6.75817e-25
4.37428e-26
3.1545e-27
2.40332e-28
1.81984e-29
1.37046e-30
1.02856e-31
7.70679e-33
5.77223e-34
4.32521e-35
3.24324e-36
2.39997e-37
1.77949e-38
1.32206e-39
9.82168e-41
7.27679e-42
5.36801e-43
3.9391e-44
2.87287e-45
2.07987e-46
1.4926e-47
1.06115e-48
7.47715e-50
5.22806e-51
3.63613e-52
2.52447e-53
1.75576e-54
1.21943e-55
8.42452e-57
5.77432e-58
3.92065e-59
2.63439e-60
1.75035e-61
1.14936e-62
7.47127e-64
6.03544e-65
0.330774
0.359375
0.374041
0.366223
0.327249
0.290624
0.286461
0.284269
0.27988
0.294312
0.306861
0.310131
0.305216
0.287672
0.262402
0.234308
0.210181
0.184289
0.166485
0.166039
0.166754
0.169627
0.168274
0.168051
0.170904
0.180827
0.188726
0.194123
0.20062
0.205686
0.208354
0.213079
0.221197
0.228495
0.23645
0.243595
0.250397
0.251902
0.250067
0.243886
0.235323
0.223485
0.20799
0.185816
0.101323
0.0243025
0.00513664
0.000974737
0.000146157
1.68448e-05
1.50192e-06
1.18401e-07
8.81087e-09
7.92798e-10
7.81937e-11
5.79936e-12
3.0272e-13
1.13661e-14
3.16087e-16
6.81693e-18
1.31306e-19
3.37259e-21
1.53664e-22
9.19192e-24
5.78795e-25
3.74512e-26
2.6997e-27
2.05612e-28
1.55657e-29
1.172e-30
8.79466e-32
6.58828e-33
4.93308e-34
3.69496e-35
2.76917e-36
2.04769e-37
1.51702e-38
1.12598e-39
8.35626e-41
6.18419e-42
4.55677e-43
3.33992e-44
2.43309e-45
1.75954e-46
1.26139e-47
8.95892e-49
6.30689e-50
4.40609e-51
3.06207e-52
2.12441e-53
1.47654e-54
1.02487e-55
7.07644e-57
4.84793e-58
3.29022e-59
2.20995e-60
1.46787e-61
9.63602e-63
6.26237e-64
5.05787e-65
0.332182
0.393977
0.433069
0.455068
0.44399
0.416543
0.414951
0.413293
0.407409
0.413924
0.40577
0.381442
0.35184
0.322014
0.29454
0.267799
0.240159
0.212575
0.193915
0.192884
0.192798
0.187608
0.187533
0.186857
0.18827
0.195859
0.202411
0.20684
0.213787
0.218037
0.218775
0.223002
0.229361
0.235758
0.24448
0.251087
0.257732
0.259411
0.256112
0.24864
0.238364
0.22504
0.206611
0.17939
0.0851746
0.0188031
0.00392579
0.000724301
0.000106765
1.24057e-05
1.16506e-06
9.71858e-08
6.97687e-09
4.71824e-10
3.54126e-11
2.82334e-12
1.83911e-13
8.7273e-15
2.9817e-16
7.53786e-18
1.54757e-19
3.52733e-21
1.37663e-22
7.88732e-24
4.9374e-25
3.19162e-26
2.29933e-27
1.7501e-28
1.32409e-29
9.96337e-31
7.47154e-32
5.59294e-33
4.1843e-34
3.13112e-35
2.34409e-36
1.73126e-37
1.28094e-38
9.49454e-40
7.03631e-41
5.19994e-42
3.82611e-43
2.80047e-44
2.03737e-45
1.47147e-46
1.05361e-47
7.47476e-49
5.2566e-50
3.66882e-51
2.54747e-52
1.76596e-53
1.22647e-54
8.50692e-56
5.86996e-57
4.01904e-58
2.72623e-59
1.83029e-60
1.21519e-61
7.97435e-63
5.18084e-64
4.1832e-65
0.332364
0.406788
0.46193
0.503124
0.522957
0.523573
0.532104
0.531304
0.513817
0.486938
0.439571
0.385838
0.340675
0.310406
0.291247
0.274338
0.256232
0.235058
0.217456
0.210982
0.206371
0.202392
0.202616
0.207056
0.206276
0.211297
0.214631
0.217793
0.222264
0.226834
0.227788
0.231317
0.237026
0.242453
0.251154
0.257512
0.264724
0.265005
0.261194
0.252198
0.241013
0.225937
0.202955
0.166585
0.0688711
0.014527
0.00301108
0.000543673
7.9001e-05
9.26696e-06
9.23705e-07
1.02279e-07
7.53028e-09
5.03983e-10
5.00149e-11
6.79882e-12
5.5495e-13
2.85122e-14
9.86933e-16
2.40863e-17
4.33845e-19
6.67015e-21
1.47869e-22
6.85257e-24
4.18012e-25
2.69609e-26
1.94086e-27
1.47609e-28
1.11591e-29
8.3902e-31
6.28655e-32
4.70165e-33
3.514e-34
2.62666e-35
1.96407e-36
1.44863e-37
1.07031e-38
7.9216e-40
5.86173e-41
4.32529e-42
3.17769e-43
2.32238e-44
1.6871e-45
1.2168e-46
8.70116e-48
6.16542e-49
4.33086e-50
3.01952e-51
2.09459e-52
1.45071e-53
1.00667e-54
6.97676e-56
4.81055e-57
3.29147e-58
2.23133e-59
1.4972e-60
9.93536e-62
6.51687e-63
4.23223e-64
3.41601e-65
0.331855
0.407244
0.4685
0.516662
0.550473
0.568971
0.577098
0.563545
0.521936
0.457677
0.387585
0.329232
0.290303
0.270087
0.262808
0.259422
0.253931
0.245225
0.23356
0.227225
0.222049
0.21703
0.213985
0.214361
0.216577
0.223849
0.228096
0.226604
0.227935
0.229697
0.231474
0.237738
0.243406
0.247896
0.255697
0.263004
0.26989
0.269425
0.264661
0.25526
0.243112
0.226109
0.197211
0.15003
0.0540746
0.0112831
0.00232893
0.000412965
5.90587e-05
6.92009e-06
7.20278e-07
9.20066e-08
7.0807e-09
5.26089e-10
1.05511e-10
2.76593e-11
2.14748e-12
1.02612e-13
3.30421e-15
7.50441e-17
1.23555e-18
1.55371e-20
2.03708e-22
6.16301e-24
3.50574e-25
2.24999e-26
1.61824e-27
1.22972e-28
9.28935e-30
6.97917e-31
5.22548e-32
3.90512e-33
2.9163e-34
2.17792e-35
1.62688e-36
1.19851e-37
8.84397e-39
6.53677e-40
4.8301e-41
3.5588e-42
2.61064e-43
1.90508e-44
1.3819e-45
9.95253e-47
7.10712e-48
5.02938e-49
3.52855e-50
2.45736e-51
1.70282e-52
1.17822e-53
8.16822e-55
5.65596e-56
3.89661e-57
2.6641e-58
1.80477e-59
1.2102e-60
8.02611e-62
5.26168e-63
3.41539e-64
2.75546e-65
0.330551
0.40199
0.461311
0.506689
0.536766
0.549142
0.537653
0.498033
0.43433
0.359318
0.295112
0.252683
0.229864
0.222728
0.226127
0.234228
0.240623
0.242668
0.240591
0.238636
0.238717
0.230844
0.226207
0.224565
0.226924
0.232157
0.233927
0.232382
0.231483
0.231755
0.233862
0.239322
0.245395
0.252118
0.260295
0.267694
0.273205
0.273054
0.267765
0.257717
0.244436
0.225652
0.189156
0.13047
0.0416557
0.00877187
0.00181239
0.000316128
4.42371e-05
5.14967e-06
5.35917e-07
5.48886e-08
4.16388e-09
3.76348e-10
1.66252e-10
1.09174e-10
6.57715e-12
2.67845e-13
7.68459e-15
1.5934e-16
2.42167e-18
2.75284e-20
2.78083e-22
5.64457e-24
2.90628e-25
1.85219e-26
1.3308e-27
1.01047e-28
7.62802e-30
5.72776e-31
4.28643e-32
3.20189e-33
2.38999e-34
1.78389e-35
1.33165e-36
9.80163e-38
7.22573e-39
5.33474e-40
3.93702e-41
2.89689e-42
2.12207e-43
1.54629e-44
1.12e-45
8.05456e-47
5.74367e-48
4.05903e-49
2.84411e-50
1.97832e-51
1.36933e-52
9.46465e-54
6.55485e-55
4.5344e-56
3.12108e-57
2.13206e-58
1.44321e-59
9.67052e-61
6.40919e-62
4.19903e-63
2.72404e-64
2.19651e-65
0.327958
0.39244
0.444791
0.480846
0.495139
0.484364
0.444151
0.383489
0.315582
0.253149
0.208783
0.184883
0.176698
0.180314
0.191755
0.207473
0.222518
0.233264
0.239648
0.241818
0.241077
0.238997
0.238325
0.234611
0.23459
0.239299
0.239811
0.235737
0.233084
0.232371
0.234655
0.239854
0.247283
0.255722
0.264441
0.271534
0.276291
0.275973
0.270123
0.259453
0.244575
0.222758
0.178077
0.109192
0.0321487
0.00683326
0.00141339
0.00024185
3.31632e-05
3.82795e-06
3.72412e-07
3.1718e-08
2.29302e-09
2.23529e-10
9.92599e-11
3.14373e-11
2.364e-12
1.10245e-13
3.48809e-15
7.81598e-17
1.26954e-18
1.54699e-20
1.77741e-22
4.36548e-24
2.35684e-25
1.50451e-26
1.08009e-27
8.19473e-29
6.18265e-30
4.64062e-31
3.47198e-32
2.59306e-33
1.93522e-34
1.44412e-35
1.07765e-36
7.92738e-38
5.83991e-39
4.30773e-40
3.1757e-41
2.33386e-42
1.70735e-43
1.24234e-44
8.98527e-46
6.45236e-47
4.5945e-48
3.24237e-49
2.26884e-50
1.57617e-51
1.08966e-52
7.52312e-54
5.20452e-55
3.59651e-56
2.47305e-57
1.68782e-58
1.14151e-59
7.64273e-61
5.06142e-62
3.31367e-63
2.14825e-64
1.73115e-65
0.323028
0.37602
0.417306
0.439997
0.434245
0.398286
0.33878
0.273203
0.215316
0.170965
0.144751
0.134416
0.135972
0.14658
0.16331
0.183473
0.203881
0.220678
0.232844
0.23975
0.241576
0.242448
0.244019
0.240703
0.239455
0.237754
0.236445
0.236104
0.232588
0.231419
0.234192
0.239838
0.248505
0.258931
0.268038
0.274437
0.278774
0.278167
0.27159
0.260332
0.243587
0.218577
0.163583
0.0895675
0.0242496
0.00529567
0.00109664
0.000183758
2.47372e-05
2.83088e-06
2.60038e-07
2.02639e-08
1.35676e-09
1.14452e-10
3.42947e-11
7.14704e-12
6.09402e-13
3.09962e-14
1.05222e-15
2.5097e-17
4.34772e-19
5.89397e-21
9.15239e-23
3.24352e-24
1.88721e-25
1.20875e-26
8.67041e-28
6.57315e-29
4.95653e-30
3.7191e-31
2.7821e-32
2.07773e-33
1.55059e-34
1.15702e-35
8.63233e-37
6.34729e-38
4.67316e-39
3.44434e-40
2.53667e-41
1.86205e-42
1.36041e-43
9.88482e-45
7.1387e-46
5.11864e-47
3.63938e-48
2.5646e-49
1.79206e-50
1.24328e-51
8.5844e-53
5.91959e-54
4.0904e-55
2.82343e-56
1.93939e-57
1.32227e-58
8.93442e-60
5.97652e-61
3.95466e-62
2.58704e-63
1.67595e-64
1.34961e-65
0.313609
0.347477
0.372066
0.379521
0.357731
0.307993
0.245548
0.188334
0.1449
0.116017
0.101883
0.0995896
0.106554
0.12094
0.140639
0.163277
0.186603
0.207101
0.223105
0.233994
0.238916
0.241658
0.245091
0.242862
0.242873
0.235806
0.232665
0.235424
0.229945
0.228953
0.232829
0.239167
0.248751
0.259065
0.268931
0.276298
0.280556
0.279581
0.272046
0.260077
0.24129
0.212413
0.145642
0.0694146
0.0185361
0.00409754
0.00084301
0.000138191
1.82998e-05
2.0657e-06
1.80507e-07
1.36029e-08
8.67195e-10
6.03766e-11
1.05072e-11
1.65535e-12
1.40754e-13
7.39074e-15
2.61141e-16
6.53167e-18
1.2208e-19
2.02813e-21
5.08445e-23
2.46873e-24
1.50216e-25
9.63503e-27
6.90461e-28
5.22991e-29
3.94118e-30
2.95602e-31
2.21075e-32
1.65082e-33
1.23187e-34
9.19048e-36
6.85497e-37
5.03781e-38
3.70662e-39
2.72958e-40
2.00814e-41
1.47226e-42
1.07415e-43
7.79329e-45
5.61956e-46
4.02307e-47
2.85598e-48
2.00949e-49
1.40211e-50
9.71384e-52
6.69811e-53
4.61298e-54
3.1836e-55
2.19486e-56
1.50591e-57
1.02563e-58
6.92301e-60
4.6266e-61
3.05865e-62
1.99919e-63
1.29409e-64
1.04132e-65
0.295768
0.299158
0.302655
0.298181
0.270479
0.222616
0.170575