/*--------------------------------*- C++ -*----------------------------------*\
  =========                 |
  \\      /  F ield         | OpenFOAM: The Open Source CFD Toolbox
   \\    /   O peration     | Website:  https://openfoam.org
    \\  /    A nd           | Version:  6
     \\/     M anipulation  |
\*---------------------------------------------------------------------------*/
FoamFile
{
    version     2.0;
    format      ascii;
    class       volScalarField;
    location    "0.005";
    object      Z;
}
// * * * * * * * * * * * * * * * * * * * * * * * * * * * * * * * * * * * * * //

dimensions      [0 0 0 0 0 0 0];

internalField   nonuniform List<scalar> 
8000
(
0.0130186
0.0130434
0.0130609
0.0130968
0.0131782
0.013343
0.0136147
0.0139812
0.0143614
0.0147319
0.0151219
0.0155437
0.0159819
0.0163437
0.0165381
0.0166123
0.0167179
0.0169806
0.0174605
0.0184715
0.0206966
0.0261521
0.0396294
0.0443825
0.0658704
0.101035
0.122455
0.123568
0.116341
0.111348
0.112533
0.119568
0.130461
0.143402
0.156492
0.167966
0.17758
0.185386
0.191538
0.19585
0.197795
0.196861
0.191597
0.178732
0.146798
0.0900231
0.0520697
0.0398729
0.0285096
0.0105224
0.00204301
0.000269044
2.6673e-05
1.84265e-06
9.40778e-08
3.76605e-09
1.22715e-10
3.49452e-12
1.09404e-13
5.33871e-15
3.81652e-16
3.01812e-17
2.36516e-18
1.79761e-19
1.31898e-20
9.40809e-22
7.09142e-23
5.56345e-24
4.24827e-25
3.15314e-26
2.27825e-27
1.60397e-28
1.10092e-29
7.37137e-31
4.8161e-32
3.02577e-33
1.86248e-34
1.12457e-35
6.67366e-37
3.89644e-38
2.24247e-39
1.27752e-40
7.25056e-42
4.13086e-43
2.382e-44
1.40105e-45
8.45656e-47
5.25095e-48
3.35147e-49
2.19417e-50
1.46925e-51
9.97507e-53
6.80454e-54
4.6344e-55
3.1383e-56
2.10705e-57
1.39987e-58
9.19136e-60
5.96936e-61
4.78828e-62
0.0130755
0.0131922
0.0131848
0.013212
0.0132912
0.0134947
0.013873
0.0144508
0.0150262
0.0154502
0.0158693
0.0163249
0.0168271
0.0173156
0.017482
0.0173865
0.0173515
0.0175584
0.0179452
0.0188272
0.0211066
0.0292431
0.1243
0.0629077
0.0739194
0.113612
0.13916
0.132445
0.118908
0.111227
0.111756
0.118987
0.130382
0.14398
0.157834
0.169426
0.178851
0.186409
0.192381
0.196595
0.198418
0.197441
0.192107
0.179221
0.147826
0.09336
0.0522288
0.0371497
0.031108
0.0137192
0.00308497
0.000394607
3.26229e-05
1.99614e-06
9.71331e-08
3.86224e-09
1.28314e-10
3.78646e-12
1.21546e-13
5.82906e-15
4.06693e-16
3.1811e-17
2.4797e-18
1.8773e-19
1.37259e-20
9.76508e-22
7.34824e-23
5.75722e-24
4.39086e-25
3.25505e-26
2.3491e-27
1.65194e-28
1.13257e-29
7.57507e-31
4.94404e-32
3.1033e-33
1.90824e-34
1.151e-35
6.82307e-37
3.97898e-38
2.28698e-39
1.30096e-40
7.37121e-42
4.19164e-43
2.41207e-44
1.41575e-45
8.52838e-47
5.28647e-48
3.36966e-49
2.20403e-50
1.475e-51
1.00103e-52
6.82691e-54
4.64895e-55
3.14789e-56
2.11341e-57
1.40408e-58
9.21917e-60
5.98787e-61
4.80689e-62
0.0132757
0.0142261
0.0137095
0.013691
0.0136284
0.0138318
0.0143596
0.0154115
0.0169608
0.0171647
0.0176043
0.0180784
0.0185887
0.0193941
0.0198649
0.0191405
0.0185757
0.0187522
0.0189819
0.0195033
0.0210708
0.0253363
0.0440281
0.0415491
0.0559952
0.104681
0.186145
0.141231
0.116213
0.107664
0.109385
0.118003
0.130589
0.145454
0.160946
0.172742
0.181527
0.188487
0.194082
0.198087
0.199672
0.198613
0.193159
0.180206
0.149552
0.0978855
0.0573643
0.0317195
0.0238485
0.00926589
0.00173857
0.000210693
1.94464e-05
1.36051e-06
7.45777e-08
3.35805e-09
1.28162e-10
4.35227e-12
1.51593e-13
7.00834e-15
4.60097e-16
3.50663e-17
2.70628e-18
2.03606e-19
1.48065e-20
1.0495e-21
7.88934e-23
6.16897e-24
4.69438e-25
3.47235e-26
2.50042e-27
1.75454e-28
1.20035e-29
8.01161e-31
5.2184e-32
3.26964e-33
2.00645e-34
1.20772e-35
7.14374e-37
4.15615e-38
2.38255e-39
1.35131e-40
7.63061e-42
4.32257e-43
2.47704e-44
1.44769e-45
8.68555e-47
5.36503e-48
3.41041e-49
2.22642e-50
1.48821e-51
1.00921e-52
6.87938e-54
4.68333e-55
3.17071e-56
2.12863e-57
1.4142e-58
9.28603e-60
6.03207e-61
4.8481e-62
0.0130835
0.0132873
0.0135142
0.0137967
0.0140742
0.0143219
0.0148139
0.015687
0.0171189
0.0192077
0.0206487
0.0211139
0.0215772
0.0203572
0.0193933
0.0191206
0.0193737
0.0206578
0.0206553
0.0207254
0.0218686
0.0251181
0.0309371
0.0344659
0.0448295
0.0709817
0.09821
0.108703
0.107281
0.106995
0.10864
0.118309
0.131867
0.147937
0.165805
0.178099
0.185226
0.19121
0.196271
0.200069
0.201327
0.200156
0.194655
0.181546
0.151519
0.0963196
0.0455752
0.0231244
0.0128685
0.00463845
0.000829931
0.000109227
1.21869e-05
1.02877e-06
6.81428e-08
3.74781e-09
1.73742e-10
6.83829e-12
2.44617e-13
9.83694e-15
5.54638e-16
3.98141e-17
3.0209e-18
2.25578e-19
1.63104e-20
1.152e-21
8.65557e-23
6.75202e-24
5.12423e-25
3.78017e-26
2.71484e-27
1.89996e-28
1.29645e-29
8.63086e-31
5.60772e-32
3.50576e-33
2.14589e-34
1.28829e-35
7.59942e-37
4.40808e-38
2.51861e-39
1.42311e-40
8.00134e-42
4.51038e-43
2.57077e-44
1.49413e-45
8.91677e-47
5.48237e-48
3.47235e-49
2.26104e-50
1.50888e-51
1.02215e-52
6.96298e-54
4.73841e-55
3.20738e-56
2.1531e-57
1.43048e-58
9.3935e-60
6.10283e-61
4.91092e-62
0.0130868
0.0134684
0.0143754
0.0150565
0.0160692
0.0156448
0.0157983
0.0164649
0.0174553
0.0205533
0.0305272
0.0286367
0.0248446
0.020875
0.0197174
0.0199519
0.0205193
0.0217646
0.0224497
0.0225207
0.0233849
0.0252916
0.0289069
0.0365982
0.0451359
0.0602808
0.0858722
0.140283
0.121097
0.107142
0.108553
0.120066
0.134396
0.151154
0.170922
0.186195
0.189275
0.194099
0.198567
0.202329
0.203181
0.20183
0.1966
0.183116
0.153728
0.0962399
0.0421249
0.0179385
0.00776238
0.00246768
0.000498805
9.10476e-05
1.25572e-05
1.23584e-06
9.66165e-08
6.31493e-09
3.39082e-10
1.4575e-11
5.12258e-13
1.70371e-14
7.3606e-16
4.63709e-17
3.40429e-18
2.5183e-19
1.81061e-20
1.27478e-21
9.57454e-23
7.45036e-24
5.63869e-25
4.14836e-26
2.9712e-27
2.07377e-28
1.41128e-29
9.37065e-31
6.07276e-32
3.78781e-33
2.31245e-34
1.38455e-35
8.14409e-37
4.70945e-38
2.68158e-39
1.50928e-40
8.44756e-42
4.73745e-43
2.68484e-44
1.55121e-45
9.20471e-47
5.631e-48
3.55232e-49
2.30656e-50
1.53644e-51
1.03958e-52
7.0765e-54
4.8136e-55
3.25759e-56
2.18665e-57
1.45281e-58
9.54087e-60
6.19956e-61
4.9941e-62
0.0131144
0.0136321
0.015005
0.0166946
0.0170846
0.0171338
0.0161183
0.0161351
0.0168388
0.0184147
0.0205977
0.0208829
0.0201958
0.0194147
0.0193931
0.0202322
0.0220711
0.0237671
0.0267156
0.02607
0.0264027
0.0268616
0.0300007
0.0380614
0.054366
0.0610471
0.0738247
0.107186
0.0969833
0.0950923
0.104551
0.123208
0.139092
0.154987
0.172869
0.185291
0.191968
0.19668
0.200631
0.204753
0.205043
0.203412
0.19906
0.18472
0.156254
0.0994091
0.0427716
0.0161982
0.00568279
0.00169833
0.000512679
0.000145061
1.99234e-05
2.00045e-06
1.73573e-07
1.3044e-08
7.86695e-10
3.61886e-11
1.26864e-12
3.66472e-14
1.1477e-15
5.62453e-17
3.84132e-18
2.80076e-19
2.00249e-20
1.40594e-21
1.05553e-22
8.19412e-24
6.18594e-25
4.53963e-26
3.24338e-27
2.25816e-28
1.53303e-29
1.01546e-30
6.56535e-32
4.0865e-33
2.48879e-34
1.48647e-35
8.72098e-37
5.0289e-38
2.85457e-39
1.60095e-40
8.92387e-42
4.9811e-43
2.80822e-44
1.61363e-45
9.52439e-47
5.79917e-48
3.64473e-49
2.3602e-50
1.56942e-51
1.06069e-52
7.21523e-54
4.90605e-55
3.31956e-56
2.22815e-57
1.48045e-58
9.72339e-60
6.31918e-61
5.09487e-62
0.0131265
0.0133582
0.0138718
0.0144836
0.0150735
0.0155707
0.0159591
0.0164232
0.0170882
0.0178162
0.0186436
0.0193252
0.0192378
0.0191955
0.0198353
0.0213724
0.0233832
0.027414
0.0344241
0.0315721
0.0304779
0.0295529
0.0325141
0.0425421
0.0988553
0.0751584
0.0682979
0.0735465
0.0782932
0.0895068
0.105887
0.124843
0.142743
0.159878
0.176303
0.187968
0.194898
0.198991
0.202263
0.207216
0.20671
0.204838
0.198702
0.185599
0.159185
0.105394
0.0454513
0.0171291
0.00601247
0.00196297
0.000725855
0.000343642
3.41284e-05
3.25943e-06
3.27223e-07
2.92763e-08
1.98941e-09
9.76283e-11
3.47373e-12
9.3457e-14
2.23948e-15
7.48433e-17
4.34614e-18
3.07808e-19
2.18714e-20
1.53182e-21
1.14946e-22
8.90514e-24
6.70838e-25
4.91274e-26
3.50267e-27
2.43368e-28
1.64884e-29
1.09e-30
7.03349e-32
4.37027e-33
2.65631e-34
1.5833e-35
9.26946e-37
5.33297e-38
3.01955e-39
1.68864e-40
9.38155e-42
5.21683e-43
2.9288e-44
1.6755e-45
9.84716e-47
5.97284e-48
3.74249e-49
2.41823e-50
1.60573e-51
1.08425e-52
7.37163e-54
5.01099e-55
3.39021e-56
2.27559e-57
1.5121e-58
9.93247e-60
6.45613e-61
5.20876e-62
0.0138423
0.0137283
0.0138012
0.0143435
0.0150335
0.0159981
0.0165692
0.0179407
0.0194615
0.0188353
0.0187224
0.0185701
0.0187899
0.0200054
0.0213866
0.0229324
0.0263302
0.0316696
0.0479878
0.041621
0.0360929
0.0351361
0.036464
0.0446455
0.0643565
0.0621372
0.0588091
0.0639988
0.0761108
0.0958979
0.117713
0.134904
0.150696
0.166234
0.181262
0.191811
0.197901
0.200959
0.203338
0.207277
0.207995
0.206321
0.198988
0.186182
0.162577
0.112518
0.0482917
0.0181754
0.00713604
0.00424217
0.00107575
0.000188709
2.72079e-05
4.1949e-06
6.39244e-07
7.17016e-08
5.42177e-09
2.79505e-10
1.00946e-11
2.63642e-13
5.39194e-15
1.19447e-16
5.03618e-18
3.3303e-19
2.34479e-20
1.6387e-21
1.22903e-22
9.5066e-24
7.14985e-25
5.22777e-26
3.72148e-27
2.58173e-28
1.74652e-29
1.15286e-30
7.42844e-32
4.60976e-33
2.79778e-34
1.66516e-35
9.73397e-37
5.59113e-38
3.16012e-39
1.76374e-40
9.77637e-42
5.42232e-43
3.03549e-44
1.73133e-45
1.01458e-46
6.13822e-48
3.83836e-49
2.47664e-50
1.64303e-51
1.10884e-52
7.53654e-54
5.12244e-55
3.46558e-56
2.32633e-57
1.54599e-58
1.01566e-59
6.6029e-61
5.32987e-62
0.0142463
0.0140395
0.0143798
0.0153608
0.0161005
0.0163783
0.017514
0.0194639
0.0232461
0.0203453
0.0196512
0.0190769
0.0192844
0.0204071
0.0218997
0.023832
0.0274473
0.0356578
0.0866572
0.0543026
0.0438029
0.0421268
0.0418951
0.0501171
0.060729
0.0556784
0.0559632
0.064186
0.0848922
0.111984
0.14297
0.151579
0.160229
0.173082
0.186647
0.196162
0.200853
0.202553
0.203845
0.207201
0.209494
0.208038
0.199404
0.186335
0.161244
0.114582
0.048942
0.0170745
0.00601913
0.00233824
0.000637576
0.000128772
2.73025e-05
6.9935e-06
1.4943e-06
1.94163e-07
1.56051e-08
8.24492e-10
2.99352e-11
7.70059e-13
1.45944e-14
2.40149e-16
6.3182e-18
3.55751e-19
2.45908e-20
1.71498e-21
1.28583e-22
9.93573e-24
7.46493e-25
5.45276e-26
3.87792e-27
2.68773e-28
1.81658e-29
1.19805e-30
7.71307e-32
4.78275e-33
2.90031e-34
1.72473e-35
1.00737e-36
5.78112e-38
3.26439e-39
1.82003e-40
1.00765e-41
5.58149e-43
3.12019e-44
1.77704e-45
1.03993e-46
6.28413e-48
3.92609e-49
2.53176e-50
1.67905e-51
1.13296e-52
7.70011e-54
5.23376e-55
3.54117e-56
2.37734e-57
1.58011e-58
1.03823e-59
6.75069e-61
5.45121e-62
0.0136449
0.014964
0.0158186
0.015529
0.0159541
0.0170233
0.0175238
0.018533
0.0198019
0.0198546
0.0195474
0.0201258
0.0208507
0.0229425
0.0277751
0.0258073
0.0278595
0.0413249
0.0798431
0.0632618
0.0545185
0.058955
0.0534347
0.0566744
0.0576677
0.0561294
0.0597388
0.0696562
0.0890733
0.114978
0.136919
0.154584
0.167638
0.179289
0.191208
0.200836
0.203572
0.203775
0.203804
0.206295
0.208755
0.207018
0.199423
0.186024
0.158635
0.108159
0.0459206
0.0149767
0.00534535
0.00220593
0.000756685
0.000132128
3.76432e-05
1.38201e-05
3.80295e-06
5.46549e-07
4.52705e-08
2.40306e-09
8.67265e-11
2.19885e-12
4.01042e-14
5.63676e-16
9.25846e-18
3.80512e-19
2.52121e-20
1.75362e-21
1.31486e-22
1.01564e-23
7.62808e-25
5.57019e-26
3.96027e-27
2.74406e-28
1.8542e-29
1.22259e-30
7.8695e-32
4.87886e-33
2.95804e-34
1.75878e-35
1.02711e-36
5.89362e-38
3.3275e-39
1.85501e-40
1.0269e-41
5.68761e-43
3.17932e-44
1.81066e-45
1.05962e-46
6.40358e-48
4.0012e-49
2.5806e-50
1.71173e-51
1.1552e-52
7.85241e-54
5.33803e-55
3.61221e-56
2.42535e-57
1.61223e-58
1.05947e-59
6.88975e-61
5.56497e-62
0.0150184
0.0141768
0.0144901
0.0150427
0.0160138
0.0176515
0.0187769
0.0196433
0.0198691
0.0201611
0.0209969
0.0220217
0.0231451
0.0245077
0.0254082
0.0259786
0.0288635
0.0420656
0.0735353
0.0874309
0.0655857
0.0709788
0.066741
0.0799351
0.0711846
0.0647173
0.0709748
0.0811954
0.101166
0.124218
0.143356
0.160516
0.174361
0.1851
0.194086
0.20169
0.205432
0.204775
0.203254
0.204798
0.206389
0.206473
0.199458
0.185354
0.156162
0.103966
0.0409971
0.0130877
0.00437663
0.00189015
0.000561125
0.000134537
5.76714e-05
2.7997e-05
9.76271e-06
1.54177e-06
1.27829e-07
6.65448e-09
2.34934e-10
5.82684e-12
1.03324e-13
1.34536e-15
1.59737e-17
4.18708e-19
2.53341e-20
1.75392e-21
1.31586e-22
1.01683e-23
7.64015e-25
5.5814e-26
3.96999e-27
2.75203e-28
1.86046e-29
1.2273e-30
7.90371e-32
4.90215e-33
2.97364e-34
1.76898e-35
1.03364e-36
5.93459e-38
3.35278e-39
1.87044e-40
1.03627e-41
5.74474e-43
3.21449e-44
1.83262e-45
1.0736e-46
6.49427e-48
4.06116e-49
2.62095e-50
1.73932e-51
1.17421e-52
7.98352e-54
5.4281e-55
3.67364e-56
2.46686e-57
1.63998e-58
1.0778e-59
7.00959e-61
5.66268e-62
0.0133502
0.0139256
0.0150889
0.0169449
0.0180235
0.0191677
0.0204621
0.0215697
0.025517
0.0254842
0.0256665
0.0263609
0.0296223
0.0307782
0.0286528
0.0292426
0.0326618
0.0444634
0.0721386
0.0753469
0.0713821
0.0734598
0.0816711
0.092587
0.0795471
0.0756452
0.0857038
0.0959086
0.11915
0.145233
0.155451
0.169258
0.181154
0.190376
0.195529
0.200416
0.206048
0.204156
0.202165
0.203029
0.2044
0.20626
0.199808
0.184406
0.153125
0.0999601
0.0368089
0.0114309
0.00345487
0.00148763
0.000723356
0.000160749
8.95559e-05
5.42012e-05
2.39236e-05
4.39063e-06
3.47669e-07
1.70096e-08
5.70895e-10
1.36229e-11
2.33834e-13
2.9083e-15
2.8969e-17
4.844e-19
2.50824e-20
1.72205e-21
1.29361e-22
1.00088e-23
7.52956e-25
5.50732e-26
3.92202e-27
2.72203e-28
1.84237e-29
1.21681e-30
7.84535e-32
4.87097e-33
2.95812e-34
1.76178e-35
1.03065e-36
5.92452e-38
3.35128e-39
1.87209e-40
1.03866e-41
5.76674e-43
3.23193e-44
1.8455e-45
1.08275e-46
6.55791e-48
4.10505e-49
2.65119e-50
1.76022e-51
1.18867e-52
8.08326e-54
5.49648e-55
3.72012e-56
2.49816e-57
1.66083e-58
1.09153e-59
7.09903e-61
5.73529e-62
0.0135435
0.0155447
0.0178063
0.0206143
0.0231156
0.0249304
0.0258854
0.0328566
0.0771365
0.0597688
0.0436304
0.0409756
0.0397383
0.0377571
0.0356534
0.0366471
0.0448407
0.0525683
0.0695821
0.079059
0.0871015
0.0859607
0.0956598
0.10518
0.0904889
0.0893489
0.0984491
0.110983
0.131069
0.152257
0.165847
0.177648
0.187127
0.191897
0.195725
0.199128
0.204108
0.20353
0.20068
0.201183
0.202539
0.205512
0.199233
0.18304
0.149278
0.0887491
0.0313921
0.00966035
0.00271742
0.000994404
0.000391865
0.000167505
0.000128929
9.54305e-05
5.24561e-05
1.35047e-05
9.27484e-07
3.95514e-08
1.19919e-09
2.66914e-11
4.36572e-13
5.20939e-15
4.7342e-17
5.72607e-19
2.46006e-20
1.67003e-21
1.25712e-22
9.74684e-24
7.34733e-25
5.38468e-26
3.84209e-27
2.67159e-28
1.81159e-29
1.19864e-30
7.74186e-32
4.81419e-33
2.92855e-34
1.74705e-35
1.0237e-36
5.89398e-38
3.33933e-39
1.86839e-40
1.03827e-41
5.77375e-43
3.24078e-44
1.85311e-45
1.08847e-46
6.59825e-48
4.13267e-49
2.66988e-50
1.77286e-51
1.19721e-52
8.14091e-54
5.53524e-55
3.74601e-56
2.51532e-57
1.6721e-58
1.09886e-59
7.1464e-61
5.77337e-62
0.0161016
0.0277664
0.0300967
0.0323337
0.0368798
0.0624039
0.0454783
0.0457727
0.0665187
0.065533
0.0648044
0.0606172
0.058178
0.0548985
0.0506672
0.0483358
0.0542884
0.0698712
0.0783764
0.0911419
0.119359
0.102516
0.103955
0.107024
0.10611
0.108404
0.113581
0.126067
0.145014
0.166499
0.176343
0.184634
0.192351
0.19312
0.195095
0.197409
0.199779
0.200226
0.198747
0.199356
0.200662
0.203957
0.197674
0.181042
0.144409
0.0754242
0.0272062
0.00752454
0.00213062
0.000746142
0.000304957
0.000178252
0.000164825
0.0001461
9.50338e-05
4.60668e-05
2.2329e-06
7.68436e-08
2.01128e-09
4.05749e-11
6.22295e-13
7.10027e-15
6.12308e-17
6.30779e-19
2.39278e-20
1.61311e-21
1.21783e-22
9.46835e-24
7.15637e-25
5.25821e-26
3.76115e-27
2.62156e-28
1.78178e-29
1.18155e-30
7.64782e-32
4.76473e-33
2.90418e-34
1.73579e-35
1.01891e-36
5.87632e-38
3.33453e-39
1.86835e-40
1.03955e-41
5.7867e-43
3.25037e-44
1.8593e-45
1.09213e-46
6.61859e-48
4.14343e-49
2.67534e-50
1.77548e-51
1.19836e-52
8.14516e-54
5.53611e-55
3.74545e-56
2.51432e-57
1.6711e-58
1.09802e-59
7.13996e-61
5.76745e-62
0.0275891
0.147769
0.11705
0.0925395
0.0764413
0.0900942
0.0692255
0.0773193
0.0979733
0.102685
0.118075
0.104666
0.0972223
0.0862018
0.0906804
0.0691215
0.0640478
0.067864
0.0814371
0.104087
0.118425
0.109231
0.109505
0.113841
0.119333
0.128013
0.12987
0.140602
0.157111
0.183097
0.185273
0.189536
0.193559
0.193463
0.193768
0.195351
0.195321
0.195352
0.1969
0.197602
0.198877
0.202638
0.196652
0.178708
0.138382
0.0652621
0.0228753
0.00619543
0.00177969
0.000681966
0.000275815
0.000177662
0.000177154
0.000185547
0.000144238
2.42614e-05
1.55539e-06
6.33881e-08
1.82267e-09
3.82965e-11
5.92569e-13
6.71893e-15
5.73768e-17
5.9543e-19
2.3086e-20
1.56657e-21
1.18699e-22
9.25709e-24
7.0172e-25
5.17041e-26
3.70821e-27
2.59124e-28
1.76545e-29
1.17342e-30
7.61171e-32
4.75141e-33
2.90163e-34
1.73732e-35
1.02144e-36
5.89898e-38
3.35112e-39
1.8791e-40
1.04591e-41
5.82126e-43
3.26737e-44
1.86658e-45
1.09446e-46
6.61921e-48
4.13539e-49
2.66527e-50
1.76607e-51
1.19055e-52
8.08439e-54
5.49081e-55
3.71271e-56
2.49126e-57
1.65521e-58
1.08728e-59
7.06863e-61
5.70869e-62
0.0513503
0.102203
0.115746
0.167185
0.129067
0.108205
0.0902088
0.0999858
0.11677
0.14311
0.188992
0.170264
0.141075
0.117459
0.100004
0.0844244
0.0760414
0.0756164
0.0895291
0.104862
0.107373
0.109056
0.116487
0.126998
0.137014
0.142098
0.146214
0.154466
0.164424
0.177039
0.183051
0.186372
0.189697
0.189891
0.190104
0.191176
0.19006
0.189873
0.192616
0.194889
0.196057
0.200447
0.193835
0.174847
0.129768
0.0533009
0.0182771
0.00499448
0.00147892
0.000689111
0.000246497
0.00015212
0.000150153
0.00018635
0.000318293
4.45937e-05
1.78456e-06
6.5362e-08
1.74547e-09
3.40272e-11
4.88902e-13
5.18523e-15
4.26429e-17
4.98253e-19
2.22649e-20
1.53798e-21
1.17041e-22
9.1589e-24
6.965e-25
5.14752e-26
3.70231e-27
2.59403e-28
1.77179e-29
1.18039e-30
7.67343e-32
4.79924e-33
2.93605e-34
1.76063e-35
1.03643e-36
5.99068e-38
3.4045e-39
1.90856e-40
1.06121e-41
5.89453e-43
3.29837e-44
1.87669e-45
1.0952e-46
6.59105e-48
4.09873e-49
2.63113e-50
1.73789e-51
1.16868e-52
7.92128e-54
5.37275e-55
3.62922e-56
2.4334e-57
1.61583e-58
1.06094e-59
6.89489e-61
5.56655e-62
0.0780554
0.0850062
0.10709
0.13514
0.15462
0.124433
0.106669
0.108957
0.127213
0.174784
0.191362
0.198992
0.17437
0.144624
0.11992
0.105121
0.0945068
0.0897324
0.101644
0.104539
0.107303
0.112898
0.12162
0.137551
0.150117
0.150198
0.156106
0.163781
0.16826
0.173383
0.178075
0.182992
0.185544
0.186203
0.185067
0.183461
0.182583
0.183694
0.187332
0.191055
0.193145
0.195851
0.189374
0.169508
0.120335
0.0438716
0.014665
0.00409628
0.00139527
0.000652002
0.000163871
0.000100665
8.75194e-05
9.42348e-05
8.33213e-05
9.81142e-06
5.94588e-07
2.35572e-08
6.49372e-10
1.28894e-11
1.87374e-13
2.02523e-15
1.89203e-17
3.79012e-19
2.21432e-20
1.56154e-21
1.19193e-22
9.34765e-24
7.12293e-25
5.2742e-26
3.79998e-27
2.66664e-28
1.82396e-29
1.21665e-30
7.91763e-32
4.95697e-33
3.03445e-34
1.82022e-35
1.0714e-36
6.18878e-38
3.51216e-39
1.96416e-40
1.08807e-41
6.01169e-43
3.3403e-44
1.88427e-45
1.08909e-46
6.49071e-48
4.00025e-49
2.54857e-50
1.67336e-51
1.12026e-52
7.56833e-54
5.12131e-55
3.45352e-56
2.31276e-57
1.53432e-58
1.00672e-59
6.53902e-61
5.27674e-62
0.0941868
0.0853315
0.0993944
0.116586
0.14212
0.126643
0.110563
0.110326
0.126336
0.150826
0.179803
0.190198
0.184557
0.157907
0.131561
0.116005
0.107017
0.102699
0.106473
0.107381
0.110146
0.115129
0.121285
0.130953
0.140535
0.144962
0.147289
0.151048
0.155658
0.16364
0.173733
0.181122
0.182611
0.180487
0.177485
0.17498
0.174631
0.177694
0.181728
0.185698
0.189694
0.19122
0.182875
0.16262
0.108402
0.036108
0.0112553
0.0034135
0.00133027
0.000347082
9.77468e-05
5.568e-05
3.97175e-05
3.22838e-05
1.71005e-05
2.07393e-06
1.33365e-07
5.50678e-09
1.5738e-10
3.2331e-12
4.88894e-14
5.78878e-16
8.27743e-18
3.36724e-19
2.28892e-20
1.62681e-21
1.24183e-22
9.73722e-24
7.41852e-25
5.4921e-26
3.95613e-27
2.77546e-28
1.89775e-29
1.26535e-30
8.23048e-32
5.15086e-33
3.15052e-34
1.88777e-35
1.1095e-36
6.39571e-38
3.61924e-39
2.01601e-40
1.1107e-41
6.0921e-43
3.35348e-44
1.87056e-45
1.06773e-46
6.28303e-48
3.82701e-49
2.41408e-50
1.57269e-51
1.04672e-52
7.0416e-54
4.75057e-55
3.19671e-56
2.13755e-57
1.41654e-58
9.28677e-60
6.02838e-61
4.86213e-62
0.0988185
0.0904025
0.0954709
0.103213
0.114743
0.111225
0.104331
0.105685
0.116286
0.127111
0.13687
0.138691
0.14117
0.125523
0.117278
0.113193
0.111016
0.110666
0.112931
0.112596
0.115363
0.118346
0.12041
0.125436
0.132773
0.144772
0.14128
0.142383
0.147063
0.156356
0.166892
0.171958
0.174388
0.174836
0.169488
0.166736
0.167328
0.172397
0.177015
0.180498
0.184961
0.185609
0.176071
0.155012
0.0941276
0.0296985
0.00886971
0.00274756
0.000841298
0.000221537
7.0724e-05
3.20227e-05
1.66077e-05
9.32947e-06
3.25009e-06
3.92956e-07
2.65359e-08
1.17252e-09
3.63055e-11
8.17672e-13
1.39477e-14
2.14925e-16
5.76163e-18
3.37952e-19
2.38557e-20
1.69409e-21
1.29032e-22
1.00969e-23
7.67804e-25
5.67414e-26
4.0803e-27
2.85784e-28
1.95091e-29
1.29871e-30
8.43392e-32
5.27076e-33
3.21807e-34
1.9244e-35
1.12842e-36
6.48654e-38
3.65765e-39
2.02802e-40
1.11056e-41
6.04324e-43
3.29332e-44
1.81489e-45
1.02195e-46
5.92982e-48
3.56456e-49
2.22325e-50
1.43543e-51
9.48941e-53
6.35275e-54
4.27114e-55
2.86721e-56
1.91401e-57
1.26689e-58
8.2985e-60
5.38337e-61
4.33961e-62
0.0997098
0.094784
0.0946892
0.0962279
0.0996177
0.0998533
0.0983739
0.10063
0.105948
0.108562
0.108309
0.105817
0.101256
0.0987741
0.100728
0.104493
0.111724
0.115884
0.116253
0.1189
0.1179
0.118997
0.118629
0.12118
0.125873
0.131562
0.134036
0.135359
0.140676
0.149742
0.157701
0.160122
0.163948
0.164533
0.160351
0.158867
0.160911
0.166596
0.172057
0.175671
0.180182
0.180142
0.168975
0.144986
0.0791281
0.0236535
0.00712064
0.00223607
0.000650008
0.000215373
8.89679e-05
3.2978e-05
1.07366e-05
4.03281e-06
1.12855e-06
1.75579e-07
1.60809e-08
9.36972e-10
3.66728e-11
9.99762e-13
1.96566e-14
3.13557e-16
6.91157e-18
3.51982e-19
2.428e-20
1.71545e-21
1.30222e-22
1.01601e-23
7.70491e-25
5.67933e-26
4.07409e-27
2.84687e-28
1.9391e-29
1.28807e-30
8.3473e-32
5.20664e-33
3.17203e-34
1.89251e-35
1.10691e-36
6.34426e-38
3.56475e-39
1.96769e-40
1.07133e-41
5.78649e-43
3.12372e-44
1.70175e-45
9.45745e-47
5.41245e-48
3.21082e-49
1.97964e-50
1.26631e-51
8.31261e-53
5.53659e-54
3.70907e-55
2.48371e-56
1.65517e-57
1.09426e-58
7.1616e-60
4.64295e-61
3.74087e-62
0.0998844
0.0976552
0.0960516
0.0950682
0.095114
0.0954069
0.0956128
0.0966178
0.0974987
0.0952972
0.0910218
0.0863627
0.0826602
0.0827599
0.0869847
0.0933848
0.102029
0.109256
0.11361
0.120176
0.120087
0.117653
0.118926
0.120612
0.122608
0.125446
0.128993
0.130376
0.135619
0.142608
0.146734
0.149662
0.15232
0.15292
0.151385
0.151306
0.154249
0.160667
0.166338
0.171313
0.175282
0.17436
0.16147
0.134042
0.0664064
0.0187063
0.00576304
0.00179787
0.000722756
0.000302984
0.000154095
6.96791e-05
1.63828e-05
5.19606e-06
1.93008e-06
4.9327e-07
5.63649e-08
3.62127e-09
1.47605e-10
4.05912e-12
7.78872e-14
1.08435e-15
1.38351e-17
3.8506e-19
2.36662e-20
1.65452e-21
1.25142e-22
9.73352e-24
7.36007e-25
5.41039e-26
3.87124e-27
2.69859e-28
1.83389e-29
1.21553e-30
7.86061e-32
4.89318e-33
2.97479e-34
1.77096e-35
1.03338e-36
5.90722e-38
3.30882e-39
1.81936e-40
9.85693e-42
5.29017e-43
2.83274e-44
1.52792e-45
8.39379e-47
4.74454e-48
2.78064e-49
1.69599e-50
1.07532e-51
7.01129e-53
4.64688e-54
3.10227e-55
2.07245e-56
1.37887e-57
9.10577e-59
5.95482e-60
3.85845e-61
3.10741e-62
0.099911
0.099012
0.0976907
0.0962351
0.095045
0.0943544
0.093621
0.092212
0.0893903
0.0836213
0.0768536
0.0711164
0.0680323
0.0692564
0.0744487
0.0821641
0.0911857
0.0994456
0.107122
0.113655
0.114466
0.114938
0.118223
0.124618
0.123798
0.123554
0.124983
0.126603
0.13058
0.135692
0.138157
0.140835
0.142144
0.142636
0.143546
0.144149
0.148418
0.15499
0.160396
0.166082
0.170331
0.168713
0.153109
0.121018
0.0539609
0.0150501
0.0046338
0.00154421
0.000726828
0.000433993
0.000233289
0.000207487
3.44658e-05
9.4283e-06
4.99222e-06
2.05637e-06
2.49199e-07
1.58776e-08
6.30335e-10
1.67717e-11
3.09478e-13
4.02505e-15
3.92433e-17
5.0588e-19
2.20755e-20
1.50087e-21
1.13103e-22
8.77256e-24
6.61603e-25
4.85145e-26
3.46329e-27
2.409e-28
1.63377e-29
1.08082e-30
6.97674e-32
4.33489e-33
2.63068e-34
1.56324e-35
9.10406e-37
5.19308e-38
2.90152e-39
1.59052e-40
8.58355e-42
4.58366e-43
2.43866e-44
1.30488e-45
7.10119e-47
3.97278e-48
2.30452e-49
1.39255e-50
8.76122e-52
5.67833e-53
3.74694e-54
2.49377e-55
1.66244e-56
1.10451e-57
7.287e-59
4.7623e-60
3.08436e-61
2.48309e-62
0.0998732
0.0993456
0.0983329
0.0967976
0.0949172
0.0929141
0.0901041
0.0856823
0.0792159
0.0703944
0.0622146
0.0567402
0.0548959
0.057049
0.0629504
0.0714923
0.0812832
0.090774
0.0997851
0.106263
0.110298
0.11327
0.116822
0.120157
0.121134
0.122468
0.123333
0.123222
0.125076
0.127476
0.129223
0.133565
0.134106
0.133819
0.135234
0.137433
0.142567
0.14902
0.154954
0.16114
0.16559
0.163039
0.143426
0.106301
0.0430302
0.0120407
0.00376512
0.0014301
0.000670032
0.000334042
0.0002483
0.000261149
5.35381e-05
1.35048e-05
1.09617e-05
8.47031e-06
9.78838e-07
5.87962e-08
2.21284e-09
5.61107e-11
9.89961e-13
1.22691e-14
1.07754e-16
8.45277e-19
2.01465e-20
1.27269e-21
9.5499e-23
7.39026e-24
5.56158e-25
4.07e-26
2.89999e-27
2.01369e-28
1.3635e-29
9.00687e-31
5.80585e-32
3.6017e-33
2.1828e-34
1.29533e-35
7.53302e-37
4.29021e-38
2.39271e-39
1.30868e-40
7.04268e-42
3.74711e-43
1.9842e-44
1.05543e-45
5.70315e-47
3.16567e-48
1.82174e-49
1.09276e-50
6.83264e-52
4.40699e-53
2.89768e-54
1.92373e-55
1.28026e-56
8.49639e-58
5.60133e-59
3.65885e-60
2.36893e-61
1.9066e-62
0.0997564
0.0990967
0.0979459
0.0959853
0.0930992
0.0892526
0.0835092
0.0754664
0.0657609
0.0556575
0.0479098
0.0439173
0.0435249
0.046579
0.0528252
0.0618283
0.0722516
0.0827105
0.092723
0.101175
0.109612
0.11277
0.116441
0.118565
0.119869
0.120934
0.12069
0.119372
0.119262
0.119764
0.12097
0.124515
0.125395
0.126057
0.127925
0.131352
0.137112
0.143745
0.150101
0.156553
0.161006
0.157521
0.132736
0.0909381
0.0339757
0.00968777
0.00306889
0.00112715
0.000476684
0.000274778
0.000230469
0.000113987
2.54856e-05
1.32936e-05
1.64997e-05
3.06229e-05
2.69098e-06
1.42204e-07
4.93493e-09
1.1788e-10
1.98229e-12
2.35573e-14
1.96541e-16
1.2652e-18
1.78627e-20
1.00589e-21
7.5112e-23
5.80276e-24
4.35995e-25
3.18587e-26
2.26692e-27
1.57218e-28
1.06337e-29
7.01741e-31
4.51932e-32
2.80017e-33
1.69559e-34
1.00535e-35
5.84143e-37
3.32359e-38
1.85152e-39
1.01127e-40
5.43245e-42
2.88362e-43
1.5223e-44
8.0659e-46
4.33799e-47
2.39517e-48
1.37082e-49
8.18086e-51
5.09295e-52
3.27363e-53
2.14701e-54
1.42285e-55
9.45805e-57
6.27197e-58
4.13283e-59
2.69877e-60
1.747e-61
1.4058e-62
0.0994803
0.0982638
0.0965476
0.0937328
0.0892408
0.082728
0.0734354
0.0622396
0.0511237
0.0418112
0.0358319
0.0335319
0.0343767
0.0380833
0.0444487
0.0533956
0.0640748
0.07514
0.0858397
0.0952957
0.103296
0.110303
0.1162
0.11712
0.117616
0.118419
0.117745
0.11482
0.113252
0.112613
0.113453
0.11578
0.117502
0.119232
0.121774
0.126001
0.132
0.139077
0.145797
0.152273
0.156234
0.150533
0.120829
0.075834
0.0269954
0.00786346
0.00253895
0.000882838
0.000390145
0.000259467
0.000138319
4.74394e-05
1.31776e-05
9.86862e-06
1.17561e-05
9.49886e-06
1.07207e-06
6.31825e-08
2.34405e-09
5.88217e-11
1.03023e-12
1.26937e-14
1.09831e-16
7.57874e-19
1.25918e-20
7.36541e-22
5.49994e-23
4.24437e-24
3.18573e-25
2.32561e-26
1.6534e-27
1.14587e-28
7.74576e-30
5.10915e-31
3.28901e-32
2.03614e-33
1.23252e-34
7.30534e-36
4.24318e-37
2.4133e-38
1.34379e-39
7.33515e-41
3.93719e-42
2.08761e-43
1.10043e-44
5.81925e-46
3.12213e-47
1.71907e-48
9.81009e-50
5.83842e-51
3.62601e-52
2.3263e-53
1.52357e-54
1.00872e-55
6.70113e-57
4.44209e-58
2.92642e-59
1.91074e-60
1.23683e-61
9.95197e-63
0.0988464
0.0963411
0.0935363
0.0895067
0.0829912
0.0734541
0.0611991
0.0486292
0.0381426
0.0306435
0.0266249
0.025731
0.0274274
0.031485
0.0377831
0.0463228
0.0567969
0.0679885
0.0790485
0.0890533
0.0973775
0.105188
0.112832
0.113385
0.113838
0.112625
0.111186
0.109482
0.107136
0.105862
0.106557
0.108511
0.110794
0.113615
0.11669
0.121327
0.127617
0.134944
0.14188
0.148173
0.151069
0.142973
0.107828
0.063052
0.0211961
0.00640868
0.00219717
0.000723075
0.000332208
0.000244694
0.000134435
2.46617e-05
6.90986e-06
5.61969e-06
5.4567e-06
2.49342e-06
2.93822e-07
1.81541e-08
7.02748e-10
1.83399e-11
3.33441e-13
4.2651e-15
3.87914e-17
3.19937e-19
7.94113e-21
5.01727e-22
3.75303e-23
2.89472e-24
2.17158e-25
1.58454e-26
1.12614e-27
7.8029e-29
5.27408e-30
3.47888e-31
2.23969e-32
1.38588e-33
8.39023e-35
4.97379e-36
2.88944e-37
1.64366e-38
9.1539e-40
4.99747e-41
2.68274e-42
1.42256e-43
7.49852e-45
3.96488e-46
2.12676e-47
1.17064e-48
6.67785e-50
3.97268e-51
2.46633e-52
1.5818e-53
1.03574e-54
6.85657e-56
4.55485e-57
3.01944e-58
1.98929e-59
1.29896e-60
8.4091e-62
6.76631e-63
0.0973957
0.0921559
0.0874573
0.0819904
0.0735979
0.0618084
0.0484456
0.0366139
0.027948
0.0224741
0.0200374
0.0201111
0.022303
0.0264679
0.0325532
0.0405562
0.0504649
0.0613603
0.0723743
0.082653
0.0913429
0.0986307
0.104705
0.107764
0.10969
0.106356
0.104305
0.104609
0.100954
0.0994392
0.100277
0.102229
0.104948
0.108198
0.11198
0.117241
0.123825
0.131254
0.138222
0.144104
0.145377
0.134713
0.0940267
0.0510048
0.0169033
0.00523678
0.00181997
0.000599603
0.000284994
0.000190432
6.38228e-05
1.27911e-05
3.51336e-06
2.56948e-06
1.93027e-06
5.97228e-07
6.80745e-08
4.25157e-09
1.68343e-10
4.51464e-12
8.45744e-14
1.12036e-15
1.09454e-17
1.25112e-19
4.78474e-21
3.1924e-22
2.39183e-23
1.84473e-24
1.38382e-25
1.00973e-26
7.17698e-28
4.97406e-29
3.36329e-30
2.21956e-31
1.42972e-32
8.84577e-34
5.35861e-35
3.17865e-36
1.84784e-37
1.05191e-38
5.86292e-40
3.20361e-41
1.7215e-42
9.13933e-44
4.82427e-45
2.5551e-46
1.37315e-47
7.57392e-49
4.32938e-50
2.58042e-51
1.60449e-52
1.03031e-53
6.75253e-55
4.4733e-56
2.97325e-57
1.9718e-58
1.29949e-59
8.48757e-61
5.49585e-62
4.42262e-63
0.0941155
0.0837421
0.0762498
0.069611
0.060403
0.0484333
0.0363589
0.0268041
0.0203917
0.0167187
0.0154256
0.0161086
0.0185349
0.0226444
0.0284324
0.0358972
0.0450723
0.0553541
0.0659248
0.075895
0.0858085
0.0912958
0.0966871
0.100446
0.10211
0.0994125
0.0972055
0.0967767
0.0943758
0.093318
0.0946637
0.0967443
0.099832
0.10347
0.107858
0.113653
0.120509
0.127906
0.134519
0.139857
0.139233
0.125263
0.0802217
0.0425244
0.013342
0.00425781
0.00151347
0.000498831