/*--------------------------------*- C++ -*----------------------------------*\
  =========                 |
  \\      /  F ield         | OpenFOAM: The Open Source CFD Toolbox
   \\    /   O peration     | Website:  https://openfoam.org
    \\  /    A nd           | Version:  6
     \\/     M anipulation  |
\*---------------------------------------------------------------------------*/
FoamFile
{
    version     2.0;
    format      ascii;
    class       volScalarField;
    location    "0.1";
    object      alphat;
}
// * * * * * * * * * * * * * * * * * * * * * * * * * * * * * * * * * * * * * //

dimensions      [1 -1 -1 0 0 0 0];

internalField   nonuniform List<scalar> 
8000
(
0.000267144
0.000536034
0.00082215
0.000778388
0.000735179
0.000744034
0.000618539
0.000475984
0.00034333
0.000235248
0.000193762
0.000269745
0.000517523
0.000737418
0.000743877
0.000636791
0.000272622
0.00025786
0.000264476
0.000284713
0.000250654
0.000221478
0.000234209
0.000295617
0.000393754
0.000499076
0.000553502
0.000561414
0.000542928
0.000624154
0.000483768
0.000295193
0.000225828
0.000180457
0.000151341
0.000136723
0.000135541
0.000143432
0.000150904
0.000159043
0.000172371
0.000178698
0.000175626
0.000166988
0.000160791
0.000158025
0.000162594
0.000171246
0.000193115
0.000202095
0.000259283
0.000225796
0.000219418
0.000225882
0.000244815
0.000279147
0.000342543
0.00045069
0.000625807
0.000862983
0.00113327
0.00138798
0.00161468
0.00173508
0.00195368
0.0020703
0.00227993
0.00241811
0.00260027
0.00275491
0.00302022
0.00304035
0.00318131
0.00334722
0.00350762
0.00360101
0.0037357
0.0038308
0.00396246
0.00403357
0.00406861
0.00412254
0.00417173
0.00424271
0.0042602
0.00427491
0.00430509
0.00433012
0.0045016
0.00441285
0.00454453
0.00464949
0.00484788
0.0047709
0.00479308
0.00483776
0.00490272
0.00507546
0.0048953
0.00499218
0.000285592
0.000491884
0.000746957
0.000725679
0.000685663
0.000700851
0.000591724
0.00044898
0.000329131
0.000237462
0.000212234
0.000311798
0.000574481
0.0005156
0.00061881
0.000614194
0.000453373
0.000380254
0.000319645
0.000264382
0.000236162
0.000217145
0.000235135
0.0002999
0.000398199
0.000504714
0.000555717
0.00056221
0.000537483
0.000484359
0.000384636
0.000293516
0.000226542
0.000181057
0.000151108
0.000135903
0.000134693
0.000143705
0.000152749
0.000165486
0.000170601
0.000179686
0.000176806
0.000168186
0.000162515
0.000160746
0.00016646
0.000176299
0.000197647
0.000215933
0.000234627
0.000228471
0.000232127
0.00024269
0.000266176
0.000308697
0.000382768
0.000497403
0.000670121
0.000898178
0.00115855
0.00140445
0.00162633
0.00174342
0.00192393
0.00207506
0.00228394
0.00242186
0.00260489
0.00275792
0.00292474
0.00304178
0.00318293
0.00334887
0.00350258
0.00360182
0.00373711
0.00383304
0.00396219
0.00403515
0.00406882
0.0041226
0.00417137
0.00424248
0.00426039
0.00427537
0.00430535
0.00433049
0.0043733
0.00441371
0.00454544
0.00465115
0.00484784
0.0047724
0.00479452
0.00483858
0.00490328
0.0050742
0.00489442
0.00499327
0.000330267
0.000361983
0.000536993
0.000496173
0.000781237
0.000754178
0.000625993
0.000341554
0.000223524
0.000229334
0.000193006
0.000385481
0.000666122
0.000281577
0.000475979
0.000482767
0.00052653
0.000474259
0.00020817
0.000131695
0.000180326
0.000203644
0.000236323
0.000308833
0.0004079
0.000519653
0.000562219
0.000563797
0.00052987
0.000459589
0.000374407
0.000291982
0.000227327
0.000182077
0.000150691
0.00013413
0.000133294
0.00014482
0.000160846
0.000174808
0.000184005
0.000185508
0.000180087
0.000171092
0.000166474
0.000166857
0.000175212
0.000188205
0.00020962
0.000227344
0.000240777
0.000250839
0.000266009
0.000283681
0.000316358
0.000373843
0.000464791
0.000587666
0.000754798
0.000964802
0.00121036
0.00143963
0.00165156
0.00175887
0.00193969
0.00208563
0.00225947
0.0024301
0.00261455
0.00276518
0.00293002
0.0030449
0.0033489
0.0033523
0.0035013
0.00375948
0.00374029
0.00383775
0.00396278
0.00416439
0.00406943
0.00412282
0.00417094
0.00424133
0.0044545
0.00427654
0.00430637
0.00433129
0.00437819
0.0044149
0.00454742
0.00465495
0.00510811
0.0050542
0.00479776
0.00484037
0.00490442
0.00507089
0.00538392
0.00499555
0.000390125
0.000238986
0.000447382
0.000653347
0.000831278
0.000810392
0.000644963
0.000456346
0.000324461
0.000256138
0.000295078
0.000486413
0.00082013
0.000322563
0.000249135
0.000377065
0.00056887
0.000520803
0.000252007
0.000202267
0.000207446
0.000206483
0.000241482
0.000319519
0.000422697
0.000592369
0.000573232
0.00056614
0.000526842
0.000450524
0.000368165
0.000290957
0.000228421
0.000184074
0.000151783
0.000143202
0.000132649
0.000156577
0.000165978
0.000185311
0.000191867
0.000191062
0.000185055
0.000175708
0.000172511
0.000176897
0.000189897
0.000207606
0.000231698
0.000252895
0.00027186
0.000294333
0.000345199
0.000351105
0.000395453
0.000468553
0.000573926
0.000702973
0.000860755
0.00104952
0.00128036
0.00148321
0.00168802
0.00178264
0.001968
0.00210236
0.00227354
0.00244234
0.00262696
0.0027757
0.00305599
0.00307796
0.00321912
0.00335777
0.00350286
0.00360592
0.00374444
0.00384602
0.00396437
0.00403915
0.00407019
0.00412311
0.00417079
0.00423887
0.004263
0.00427841
0.00430791
0.00433235
0.00438239
0.00441667
0.00455035
0.00466034
0.00484737
0.00479613
0.00480278
0.00484304
0.00490617
0.00506621
0.00491684
0.00499925
0.000456904
0.000125309
0.000195061
0.000505343
0.000729292
0.000764722
0.000609796
0.000442242
0.000334656
0.000321617
0.000391585
0.000602596
0.000831035
0.000520293
0.000621424
0.000598144
0.000632258
0.000536901
0.000342815
0.000264913
0.000218681
0.000206232
0.000249949
0.000338369
0.000440929
0.000542301
0.000573519
0.000566056
0.000524682
0.000447849
0.00036597
0.000291475
0.000230451
0.000188045
0.00015941
0.000144815
0.000144331
0.000156291
0.000175282
0.000213218
0.000196513
0.000197449
0.000194118
0.000182225
0.000181625
0.000191263
0.000211199
0.000235376
0.000265034
0.000295657
0.000321739
0.000355643
0.000406393
0.000442544
0.000496655
0.000582069
0.00069635
0.000831054
0.000971634
0.00114743
0.00136147
0.00154517
0.00173289
0.00180375
0.00198318
0.00216046
0.00229234
0.00245971
0.00272543
0.00278845
0.00294289
0.00308665
0.0032272
0.00336502
0.00350682
0.0036095
0.00374966
0.00385937
0.00396827
0.0040407
0.00407093
0.00428027
0.00417084
0.00443303
0.00426439
0.00428055
0.00431002
0.00433379
0.00438685
0.00441901
0.00455399
0.00466713
0.00484464
0.00481527
0.00480906
0.00484652
0.00490853
0.00506071
0.00493521
0.00500378
0.000516254
0.000150892
0.000200584
0.000477198
0.000670259
0.000694145
0.000546867
0.000306795
0.000386525
0.000473462
0.000662998
0.000813003
0.000920935
0.000774955
0.000804315
0.000748978
0.000526241
0.000506288
0.000446355
0.000279095
0.000210032
0.00020395
0.000281823
0.00038058
0.000462041
0.000554747
0.000585398
0.00056961
0.000528031
0.000447433
0.000366706
0.000293445
0.000233018
0.000193622
0.000168934
0.000157016
0.000155874
0.000166428
0.000184293
0.000197987
0.000205406
0.000202446
0.000221508
0.000190996
0.000194101
0.000210628
0.00024107
0.000269559
0.00030973
0.000382008
0.000387737
0.000434038
0.000536748
0.000546737
0.000610821
0.000704467
0.000821946
0.000959382
0.00108229
0.00124818
0.00144977
0.00161569
0.00178387
0.00184882
0.0020238
0.00218762
0.00231607
0.00247996
0.00265956
0.00280385
0.00294898
0.00309745
0.00323722
0.00337428
0.00351315
0.00361464
0.00375604
0.00387935
0.00397548
0.00404214
0.00407155
0.00428695
0.00420639
0.00423782
0.00426447
0.00428286
0.0043128
0.0043359
0.00439142
0.00442192
0.00455808
0.00467489
0.00484058
0.00514073
0.00481644
0.00485071
0.00491148
0.00505491
0.00494902
0.00500897
0.000554624
0.000193668
0.000239944
0.000414017
0.000612193
0.000694229
0.00035573
0.00033173
0.000488858
0.000718096
0.000844508
0.000881213
0.000850239
0.00093913
0.000910663
0.000826287
0.000591055
0.000448322
0.000348014
0.000251611
0.00019488
0.000206078
0.000279236
0.000386148
0.000485976
0.000631917
0.000683291
0.000575378
0.000589499
0.000451102
0.000369711
0.000296844
0.000238037
0.000200401
0.000179203
0.000170746
0.000168283
0.00017641
0.00019495
0.000206639
0.000231011
0.000208561
0.000205952
0.000201042
0.000209602
0.000234712
0.000309266
0.000312575
0.000363927
0.000416433
0.000466934
0.000522371
0.000644994
0.000659563
0.000733485
0.000828
0.000945584
0.00115819
0.00119251
0.00134766
0.0015425
0.00169007
0.00176539
0.00191893
0.0021111
0.00218691
0.00234413
0.00250559
0.00267931
0.00282087
0.00295875
0.00311119
0.0032497
0.00338567
0.00352189
0.00365724
0.00376265
0.00390548
0.00398471
0.00420127
0.00407229
0.00412152
0.00420379
0.00423875
0.00426331
0.00428534
0.00431644
0.00447123
0.00439618
0.00442506
0.00456242
0.00468322
0.00483765
0.00485489
0.004825
0.00485561
0.00491505
0.00504936
0.00495999
0.00501471
0.000567855
0.000280957
0.000302874
0.00052735
0.000611477
0.000643796
0.000411081
0.000623063
0.000790003
0.000867193
0.000845976
0.000800908
0.00096291
0.00079324
0.000818924
0.000707567
0.000507047
0.00037511
0.000295277
0.000225693
0.000193006
0.000230918
0.000298491
0.000447929
0.000511784
0.000592912
0.000600315
0.000576769
0.000536328
0.000454417
0.000416095
0.000301935
0.000245154
0.000209916
0.000190624
0.000205229
0.00018309
0.000189536
0.000209245
0.000221809
0.000218389
0.000214386
0.000212451
0.000213858
0.000228561
0.000260621
0.000311471
0.00036129
0.00043123
0.000495607
0.000556527
0.000619871
0.000756285
0.000775292
0.00086669
0.00094778
0.00106264
0.00118535
0.00130063
0.00143576
0.00160944
0.00183705
0.00191421
0.00194641
0.00207908
0.00222398
0.00237587
0.00253583
0.00270166
0.00298309
0.00314071
0.0031282
0.00326478
0.00339912
0.00370065
0.00366725
0.00380587
0.0039332
0.00399068
0.00421174
0.00407383
0.00412094
0.00420111
0.00423932
0.00446797
0.00428807
0.00432113
0.00434429
0.00440129
0.00442897
0.0045666
0.00469173
0.00483667
0.0048774
0.00483434
0.00486116
0.00491924
0.00504456
0.00496914
0.00502089
0.000645289
0.000412776
0.000382326
0.000481783
0.000671762
0.00070585
0.000712109
0.000845664
0.000898299
0.000899295
0.000821617
0.000731253
0.000610939
0.000653304
0.000566526
0.000530291
0.000384677
0.000294506
0.000278198
0.000202465
0.000198225
0.000238494
0.00032365
0.000433563
0.000588971
0.000680456
0.000610772
0.000581001
0.000597274
0.000455881
0.00037821
0.000310302
0.000257365
0.000223304
0.000208154
0.000200351
0.00022258
0.000206314
0.00022448
0.000267327
0.000224921
0.000219853
0.000222151
0.000231149
0.000253174
0.00029507
0.000356053
0.000423174
0.000511185
0.000583412
0.000651838
0.00072056
0.000803064
0.00088179
0.00108768
0.00106158
0.00117605
0.00129275
0.00140285
0.00152551
0.00176863
0.00184856
0.00186563
0.00204465
0.0021585
0.0022636
0.00241077
0.00256908
0.0028494
0.00286195
0.00302306
0.00314883
0.0032823
0.00341423
0.00354714
0.00367886
0.00381483
0.0039558
0.00416848
0.0040472
0.00427109
0.00433357
0.00419981
0.00424019
0.00446937
0.00429151
0.00432729
0.00435014
0.00440658
0.00443423
0.00457077
0.00470026
0.00483686
0.00490081
0.00484425
0.00486732
0.00492406
0.00504107
0.00497713
0.00502745
0.000693056
0.00051772
0.000578017
0.000578718
0.000812442
0.000880001
0.000783295
0.000890483
0.000809727
0.000718405
0.000819782
0.000632591
0.000381159
0.000291297
0.00041128
0.00039381
0.000316991
0.000235737
0.000192957
0.000186318
0.000208269
0.000259123
0.000350935
0.000452787
0.000545906
0.000692494
0.000617417
0.000579708
0.000533686
0.000457702
0.000383807
0.000320188
0.000274065
0.000270398
0.000260042
0.000217928
0.000218103
0.0002288
0.000238975
0.000245683
0.000233263
0.000229485
0.000237022
0.000255228
0.000288723
0.000339998
0.000412954
0.000492676
0.000599859
0.000677075
0.000756388
0.000821984
0.000905492
0.000982918
0.0011092
0.00117196
0.0013925
0.00149724
0.00148968
0.00160847
0.00175409
0.00180702
0.00191528
0.00201648
0.00222804
0.00238154
0.00244821
0.00260321
0.00290263
0.00291868
0.00304879
0.0031723
0.0033022
0.00343137
0.00356339
0.00369189
0.00401113
0.00417754
0.00399102
0.00405007
0.00407767
0.00415963
0.00420002
0.004242
0.0042659
0.00429388
0.00433513
0.00435634
0.00441206
0.00444083
0.00457517
0.00470919
0.00483576
0.00492417
0.00485471
0.00487404
0.0049295
0.00503905
0.00498449
0.00503429
0.000687507
0.000568072
0.000599231
0.000744294
0.000903328
0.000849062
0.000819985
0.000735712
0.000679052
0.000622886
0.000556946
0.000466434
0.000207379
0.000197533
0.000278464
0.000302228
0.000285019
0.000204389
0.000167794
0.000175413
0.000212469
0.000282637
0.000380048
0.000475068
0.000559839
0.000631985
0.000622404
0.000577565
0.000529547
0.000458895
0.000389079
0.000329572
0.000283031
0.000253797
0.000240123
0.000262702
0.000238043
0.000286445
0.00026616
0.000295003
0.000247272
0.000246563
0.000259708
0.000289779
0.000334985
0.000395065
0.000479347
0.000567275
0.000750619
0.000776406
0.000879279
0.000926222
0.000998875
0.00108226
0.00131482
0.00127199
0.00147732
0.00147779
0.0015779
0.00168463
0.00175212
0.00195597
0.00197008
0.00210886
0.00222754
0.00235001
0.00248803
0.00263731
0.00281558
0.00309574
0.00307668
0.00319824
0.00332417
0.00345054
0.00358089
0.00370551
0.00383506
0.00398586
0.00398783
0.00427663
0.00411876
0.0041619
0.00420141
0.00424509
0.00426821
0.00429821
0.00434434
0.00436279
0.00441834
0.00462087
0.00458002
0.00471867
0.00483397
0.00494681
0.00486554
0.00488139
0.00493546
0.00503864
0.00499431
0.00504151
0.000564805
0.0005711
0.000664093
0.000737621
0.000776834
0.000613981
0.000665865
0.000555167
0.000502065
0.000484745
0.00044508
0.000443978
0.000246414
0.000169621
0.000223741
0.000257327
0.000237039
0.000185775
0.000146875
0.000188645
0.00022768
0.000305265
0.000435357
0.000497132
0.000576539
0.000709251
0.000692363
0.000573736
0.000527452
0.000508337
0.000395431
0.0003387
0.000292992
0.000264452
0.000247985
0.000248196
0.000253442
0.000275175
0.000328193
0.000281674
0.000267514
0.000275872
0.000292086
0.000334105
0.000393738
0.000458064
0.000559815
0.00065628
0.000760065
0.000868927
0.00110523
0.00111158
0.00118568
0.00116463
0.00129324
0.00135756
0.00145845
0.0015755
0.00165878
0.00168566
0.00180805
0.00199631
0.00201221
0.00213566
0.00228381
0.00239842
0.00267571
0.00284208
0.00285222
0.00298229
0.0031073
0.00322619
0.00334793
0.00347135
0.00359944
0.00371988
0.00384712
0.0039643
0.00402761
0.00410138
0.00412304
0.00416491
0.00420417
0.00424873
0.00427064
0.00430285
0.00435354
0.00436976
0.00442574
0.00446483
0.00458618
0.00498639
0.00483266
0.00496786
0.00487649
0.0048893
0.00494192
0.0050397
0.00500399
0.00504898
0.000331848
0.000434104
0.000573023
0.000600842
0.00051681
0.000422235
0.000442283
0.000376246
0.000348273
0.000321182
0.000337807
0.00035458
0.000243085
0.000195782
0.000208444
0.0002332
0.000209655
0.000169465
0.000150438
0.000186349
0.0002457
0.00033143
0.000475114
0.000518501
0.00058675
0.00072264
0.000624148
0.000569385
0.000577463
0.000457488
0.000441155
0.000352788
0.000305891
0.000278669
0.000259669
0.000257645
0.000267525
0.000285497
0.00029911
0.000299105
0.000324972
0.00034915
0.000332451
0.000388614
0.000508547
0.000522148
0.000635031
0.000864591
0.000827733
0.000940924
0.00117505
0.00109454
0.00116646
0.00125161
0.0014744
0.00152433
0.00153503
0.00174562
0.00166279
0.00175457
0.00186902
0.0020208
0.00215135
0.00219648
0.00243888
0.00244641
0.0027346
0.00274563
0.00289083
0.0030182
0.00313891
0.00325584
0.00337317
0.00349359
0.00361846
0.0037352
0.00386046
0.00395161
0.00421935
0.00411129
0.00412704
0.00436853
0.00420856
0.00425241
0.00427341
0.00430797
0.00436108
0.00437723
0.00443614
0.00449099
0.00480933
0.00474155
0.00483259
0.00498665
0.00488703
0.00489764
0.00494894
0.0050443
0.00501369
0.00505665
0.000217419
0.000294769
0.000402256
0.000376629
0.000258699
0.000262564
0.000246276
0.000210893
0.000170057
9.99934e-05
0.00018966
0.000166468
0.000227145
0.000173518
0.000174408
0.00021225
0.00018119
0.000152432
0.00015678
0.000218401
0.000265823
0.000379129
0.000464114
0.000539714
0.000594278
0.000633332
0.000616345
0.000556737
0.000505114
0.00044568
0.00039239
0.000365349
0.000312928
0.000314087
0.000270046
0.000268089
0.000278422
0.000296688
0.000344878
0.000310865
0.000314054
0.000337264
0.000380085
0.000451444
0.000579459
0.000588546
0.000691518
0.000797616
0.000896046
0.000990109
0.00109027
0.00112615
0.00121381
0.00141041
0.00152987
0.00150645
0.00160344
0.00172095
0.00173554
0.00181219
0.00191229
0.00201566
0.00220375
0.00225586
0.00239112
0.00252598
0.00264989
0.00279016
0.00293001
0.00305411
0.00317151
0.00328709
0.00339981
0.00351714
0.00363789
0.00375098
0.00387634
0.00394982
0.00402819
0.00412351
0.00413171
0.00417336
0.00421475
0.00445924
0.00427547
0.00445488
0.00450808
0.00438499
0.00445315
0.00453539
0.00460571
0.00475507
0.00483391
0.00500307
0.00489703
0.00490637
0.00495658
0.00504961
0.00502339
0.00506458
0.000230993
0.000251663
0.00030218
0.00020199
6.98329e-05
0.000107134
0.000132452
0.000107264
7.56276e-05
9.89263e-05
9.70172e-05
0.000141594
0.000196443
0.00016925
0.000154171
0.000187601
0.000156305
0.000138648
0.000159181
0.000234183
0.000289384
0.0003846
0.000532987
0.000557808
0.000602864
0.000628124
0.00068111
0.000544275
0.000487977
0.000432597
0.000389618
0.000347676
0.0003388
0.000281984
0.00030313
0.000275255
0.000290359
0.000336137
0.00035758
0.000331576
0.000340451
0.00037159
0.000434912
0.000526716
0.000596307
0.000656579
0.000762141
0.000856743
0.000955274
0.00114999
0.0011306
0.00119118
0.00126415
0.0013378
0.00143714
0.00155592
0.00160446
0.00171801
0.00178112
0.0019487
0.00201705
0.00208437
0.00220476
0.00231516
0.00247366
0.00257654
0.00269998
0.00283397
0.00311725
0.0030901
0.00320404
0.00331839
0.00342619
0.0035415
0.00365793
0.00376685
0.00389327
0.00396969
0.00423664
0.00414268
0.00413711
0.00417848
0.00422156
0.00426106
0.00428036
0.00432028
0.00437599
0.00439307
0.00447565
0.00460544
0.00485474
0.00476835
0.00483641
0.00501612
0.00490634
0.00491567
0.00496468
0.00505522
0.00503306
0.00507257
6.78648e-05
0.000115092
0.000156699
8.05901e-05
6.03965e-05
7.58268e-05
7.75797e-05
6.28272e-05
6.16198e-05
6.92476e-05
8.00664e-05
0.000103703
0.000149596
0.000186855
0.000176082
0.000149809
0.000139533
0.000142759
0.00017597
0.000238545
0.000340611
0.000438295
0.000507667
0.000620536
0.000660208
0.000693619
0.000682991
0.000530676
0.000471671
0.000415286
0.000429073
0.000372944
0.000293574
0.000273356
0.00026979
0.000307997
0.000329905
0.000309548
0.000328436
0.000404131
0.000379378
0.000421313
0.000555686
0.000615315
0.000774017
0.000736294
0.000919077
0.000928956
0.0010326
0.00117562
0.00121009
0.001269
0.00134438
0.00142205
0.00151132
0.00158473
0.00167257
0.00182149
0.00190842
0.00197197
0.00212996
0.00225144
0.00227779
0.0024149
0.00253597
0.00263719
0.00275877
0.00288498
0.00301448
0.00313306
0.00324463
0.00335794
0.00345992
0.00357027
0.0038176
0.00378565
0.00390365
0.00424671
0.00404634
0.0043657
0.0041434
0.00418521
0.00422989
0.00426816
0.00428747
0.00447259
0.0043844
0.00440284
0.00449471
0.0049111
0.00463623
0.00478288
0.00484134
0.00502798
0.004917
0.00492766
0.00497474
0.00506211
0.00504445
0.00508229
1.82459e-05
6.9828e-05
8.68579e-05
8.77003e-05
7.30948e-05
7.51805e-05
6.39059e-05
5.49312e-05
5.49907e-05
5.71292e-05
6.27079e-05
8.35418e-05
0.000107191
0.000155391
0.000135124
0.000136323
0.000130159
0.000156699
0.000216389
0.000269663
0.000361625
0.000450174
0.00053216
0.000588073
0.000667955
0.000687374
0.000634006
0.000510432
0.00051514
0.000393495
0.000353118
0.00030839
0.00027587
0.000263731
0.000262721
0.000269998
0.000287092
0.000308897
0.000373082
0.000384205
0.000481114
0.000539205
0.000637368
0.000664769
0.000746684
0.000820331
0.000912611
0.00100646
0.0011123
0.00120377
0.00127648
0.001376
0.00145001
0.00152481
0.00156222
0.00163614
0.00179159
0.00191465
0.00193014
0.00210788
0.00224509
0.00243734
0.00238562
0.0024927
0.00260599
0.00270559
0.00282286
0.00294254
0.00306865
0.00318234
0.00329117
0.00340295
0.00349863
0.00360455
0.00371157
0.00380855
0.00392586
0.00398203
0.00405915
0.00415913
0.00415193
0.00419272
0.00423804
0.00427309
0.00429636
0.00434062
0.00439246
0.00441526
0.00451503
0.00466817
0.00465652
0.00479999
0.00484903
0.00503749
0.00492937
0.0049424
0.00498703
0.00506981
0.00505734
0.0050937
8.03533e-06
4.19985e-05
6.38071e-05
7.27663e-05
7.37587e-05
7.11707e-05
6.34534e-05
5.92719e-05
5.74012e-05
5.62169e-05
6.15782e-05
7.16712e-05
9.4776e-05
0.000119558
0.00012364
0.000121696
0.000131604
0.000167493
0.000245741
0.000302996
0.000449325
0.000487858
0.000560916
0.000596683
0.000669237
0.000599903
0.000552995
0.000486308
0.000478345
0.000367996
0.000378758
0.000323914
0.000263859
0.000257752
0.000292586
0.000263101
0.000284059
0.000311104
0.000347894
0.000455383
0.000477573
0.00055143
0.00064224
0.000836497
0.000819707
0.000895744
0.00100417
0.00109418
0.00118766
0.00126714
0.00134295
0.0014451
0.00148142
0.00159947
0.00163762
0.00175845
0.0018622
0.00200372
0.00201383
0.00211729
0.00222685
0.00235767
0.00246048
0.00256738
0.00278945
0.00277126
0.0028834
0.00299842
0.00323379
0.00334358
0.00333659
0.00344591
0.00353639
0.00363805
0.00374208
0.00383182
0.00394546
0.00399728
0.00407305
0.00415045
0.00416113
0.00420057
0.00440375
0.00427893
0.00430584
0.00435278
0.00440187
0.00442886
0.00453619
0.0049002
0.00467501
0.0048158
0.00485843
0.00504668
0.00494279
0.00495839
0.00500061
0.00507678
0.00507009
0.00510544
9.91278e-06
2.5041e-05
4.67174e-05
6.22786e-05
6.83831e-05
6.92162e-05
6.87017e-05
6.85231e-05
6.61367e-05
6.3088e-05
6.16504e-05
6.72785e-05
8.40222e-05
0.000103728
0.000115839
0.000120574
0.000144159
0.000218314
0.000262226
0.000349788
0.000455616
0.000575548
0.000636817
0.00065367
0.000658427
0.000587644
0.000533215
0.000469403
0.000402599
0.000346768
0.000336254
0.00027072
0.000252149
0.000273711
0.000250416
0.000260751
0.000318443
0.000325975
0.000364267
0.000442313
0.000541194
0.000691069
0.000709378
0.000811894
0.000930199
0.00102931
0.00111857
0.00116559
0.00126605
0.00134605
0.00142196
0.00154395
0.00161684
0.00163675
0.00171893
0.0017922
0.00189332
0.00200715
0.00209206
0.0022271
0.00234301
0.0025807
0.00253303
0.00275265
0.00273997
0.00283341
0.00293976
0.00305088
0.00316782
0.00327811
0.00349861
0.00348528
0.0035729
0.00367065
0.00377029
0.00385504
0.0039624
0.00401312
0.00408716
0.00432733
0.00417163
0.00420857
0.00425409
0.00428637
0.00431624
0.00436465
0.00441265
0.00444361
0.00455378
0.00465081
0.00469458
0.00483086
0.00487312
0.00505675
0.00495802
0.0049753
0.00501535
0.0050831
0.00508264
0.00511778
2.02282e-05
1.46041e-05
3.30547e-05
5.11394e-05
6.16339e-05
6.73481e-05
7.48937e-05
8.07499e-05
8.11232e-05
7.81121e-05
7.3816e-05
8.40182e-05
8.33549e-05
0.000103818
0.00011106
0.000131915
0.000170299
0.000235183
0.000316981
0.000408494
0.00050504
0.000642994
0.00060359
0.000616625
0.00060821
0.00058133
0.000515822
0.000502876
0.000387211
0.000356947
0.000295323
0.000262912
0.000267712
0.000247215
0.000270903
0.000265503
0.000297186
0.000350288
0.000397307
0.000491594
0.000612882
0.000692128
0.00078195
0.000917576
0.000966515
0.00105582
0.00116983
0.00125994
0.0013585
0.0014373
0.0015871
0.0016534
0.0017278
0.00171655
0.0019036
0.00186764
0.00199537
0.00221839
0.00219618
0.00230673
0.00241968
0.00250732
0.00260138
0.00270339
0.00280216
0.00289002
0.00299185
0.0030997
0.00321345
0.00332418
0.00342257
0.0035226
0.00360772
0.00370146
0.00379641
0.00387745
0.00411966
0.00402984
0.0040998
0.00415157
0.00418237
0.00421594
0.00441653
0.00429458
0.00432689
0.00437664
0.00442537
0.00445941
0.00456944
0.00463849
0.0047141
0.00484568
0.00488936
0.00507068
0.00497494
0.00499305
0.00503077
0.00509018
0.00509512
0.00513067
3.80231e-05
1.29193e-05
2.25652e-05
3.9056e-05
5.13205e-05
6.15914e-05
7.79514e-05
9.46196e-05
0.000102572
0.000101679
9.58706e-05
9.33438e-05
9.25129e-05
0.000103019
0.000121873
0.000156052
0.000214848
0.000326433
0.000385978
0.00046996
0.000548678
0.000595079
0.000617602
0.000622285
0.000606476
0.000628858
0.00051041
0.000442811
0.000378051
0.000328764
0.000294887
0.000268172
0.000256759
0.000255423
0.000263554
0.000282553
0.000320518
0.000411054
0.000445169
0.000552308
0.00069378
0.00075563
0.000912582
0.000951001
0.00103638
0.00114252
0.00131538
0.00133843
0.00143535
0.00151124
0.00158683
0.00165022
0.00172376
0.00178655
0.00189082
0.00196698
0.00206928
0.00217179
0.00227285
0.00238114
0.00248822
0.00257611
0.00266374
0.00276509
0.00299249
0.00294128
0.00304148
0.00314649
0.00325614
0.00336661
0.00346309
0.0035579
0.00363969
0.00373045
0.00382021
0.00389942
0.00399521
0.00404644
0.0041127
0.00416137
0.00419293
0.00422322
0.00427683
0.00430418
0.00433793
0.00438779
0.00444108
0.00469079
0.00458574
0.00464269
0.00473462
0.00486544
0.00490808
0.00508649
0.00499831
0.00501176
0.00504691
0.00509795
0.00510829
0.00514392
5.68862e-05
2.07277e-05
1.82728e-05
2.94407e-05
4.12387e-05
5.52758e-05
7.91263e-05
0.000108304
0.000129769
0.00013574
0.000129789
0.000121864
0.00011773
0.00014284
0.000151858
0.000214797
0.000300891
0.000368677
0.000503671
0.000532573
0.000665091
0.000614111
0.00063087
0.000626039
0.000676738
0.000650135
0.000506078
0.000471405
0.000381998
0.000339016
0.000311035
0.000290262
0.000296508
0.000283289
0.000293853
0.000316187
0.000385725
0.000426743
0.000508962
0.000664106
0.000753375
0.000891276
0.000934473
0.00102282
0.00112504
0.00122364
0.00132637
0.00141452
0.00150634
0.00157959
0.00173388
0.00171662
0.0017886
0.00199686
0.00206765
0.00203752
0.00213887
0.00224179
0.00245704
0.00245514
0.00254871
0.00263741
0.00271935
0.00281631
0.00290476
0.00299067
0.00308831
0.00319054
0.00329632
0.00340672
0.00365404
0.00359078
0.00366999
0.00375651
0.00384214
0.00392108
0.00401129
0.00406196
0.00412481
0.00417201
0.00435749
0.00438656
0.00428959
0.00431406
0.0043493
0.0044005
0.00445662
0.00449862
0.00460829
0.00465762
0.00475557
0.00488645
0.00492751
0.0051014
0.00502067
0.00503113
0.00506377
0.00510945
0.00512306
0.00515859
6.98509e-05
3.72071e-05
2.22212e-05
2.6455e-05
3.68781e-05
5.2909e-05
8.1248e-05
0.000122474
0.000160918
0.00018019
0.000178036
0.000162561
0.000159494
0.000170082
0.000203654
0.000266238
0.000354222
0.000451235
0.000517604
0.000591037
0.000624612
0.00063803
0.000699464
0.000625711
0.000599538
0.000610618
0.000500387
0.0004628
0.000399088
0.00036466
0.000340945
0.000325897
0.000323161
0.000327283
0.000343326
0.000370376
0.000419787
0.000492523
0.000581931
0.000694623
0.000819883
0.000915602
0.000998887
0.00110178
0.00120628
0.0013484
0.00139332
0.00148327
0.0015691
0.00164106
0.00179172
0.00177676
0.0018477
0.00193061
0.00202208
0.00210361
0.00220243
0.00230355
0.00241358
0.00265366
0.00259981
0.0026924
0.00276959
0.00286222
0.0029529
0.00303921
0.00313461
0.00323464
0.00333642
0.00344579
0.00353943
0.00362057
0.00369802
0.00378132
0.00386207
0.00394029
0.00402454
0.00407498
0.00413542
0.00418114
0.00421333
0.00440145
0.00429931
0.00432394
0.00436085
0.00441471
0.00447415
0.00452138
0.00463028
0.00467806
0.00477676
0.00490729
0.00494703
0.00511338
0.00504154
0.00505087
0.00508165
0.00512151
0.00513844
0.0051753
7.38105e-05
5.20244e-05
3.56439e-05
3.34534e-05
4.14213e-05
5.47181e-05
8.38097e-05
0.00013658
0.000193823
0.000231325
0.000239349
0.000229606
0.000220672
0.000235227
0.000274609
0.000351775
0.000485338
0.000581582
0.000577275
0.000716199
0.000654958
0.000655466
0.000647644
0.000622007
0.000598009
0.000559465
0.00050725
0.000451609
0.000423294
0.000395578
0.000383827
0.00037659
0.000382171
0.000381973
0.000401242
0.000436328
0.000488085
0.000592269
0.000645209
0.000819958
0.00089567
0.000995734
0.00107809
0.00122517
0.00127914
0.00136733
0.00151762
0.001544
0.00169646
0.00169164
0.00185621
0.00182826
0.00189908
0.00197627
0.0021821
0.00216158
0.00225763
0.00235703
0.00247421
0.00256674
0.00264738
0.00274211
0.00281621
0.00311032
0.00299812
0.00308587
0.00317998
0.00327679
0.00337461
0.00348306
0.00357759
0.00364904
0.00372407
0.00380332
0.00388125
0.00395695
0.00403421
0.00408578
0.00414397
0.00418832
0.00422279
0.00425584
0.00447678
0.00433247
0.00437368
0.0044288
0.0044943
0.00454593
0.00464904
0.00470222
0.00479841
0.00492731
0.00496717
0.00512163
0.00506123
0.00507086
0.00510011
0.00513517
0.00515466
0.00519262
6.91185e-05
5.58143e-05
5.07028e-05
4.94935e-05
5.30544e-05
5.81839e-05
8.56292e-05
0.000148276
0.000224998
0.000283087
0.000307683
0.000306543
0.000301224
0.00031789
0.000362706
0.000483461
0.000512208
0.000588128
0.000686545
0.00067718
0.000677638
0.000667445
0.000650138
0.000627647
0.000588668
0.000540727
0.00049927
0.000469614
0.000462615
0.000444594
0.000441052
0.000438403
0.000441749
0.000448489
0.000468637
0.000514437
0.000559287
0.000637593
0.000721825
0.000891334
0.000973281
0.00110886
0.00115658
0.00131465
0.00140965
0.00142563
0.00150996
0.00159746
0.00166834
0.00183252
0.0018192
0.00187329
0.00194418
0.00202267
0.00212238
0.00221323
0.00230633
0.00240566
0.00252718
0.00260862
0.00269133
0.00278462
0.00285894
0.00294967
0.00304363
0.00313152
0.00322361
0.00331851
0.00341256
0.00351844
0.00361061
0.00367583
0.00374921
0.0038244
0.00389782
0.00397239
0.00404228
0.00409359
0.00415025
0.00419421
0.00423025
0.00426731
0.00431579
0.00434293
0.00438645
0.00444551
0.00451434
0.00457256
0.00466823
0.00472701
0.00482214
0.00494531
0.00498702
0.00512599
0.00507966
0.0050914
0.00511904
0.00515037
0.00517196
0.00521045
5.90832e-05
5.1971e-05
5.6641e-05
6.33185e-05
6.48507e-05
6.14867e-05
8.48484e-05
0.000154766
0.000249199
0.000329477
0.000373937
0.000387153
0.000390168
0.000411833
0.000460062
0.000534181
0.000591402
0.000643166
0.000672908
0.000696776
0.00068937
0.000672026
0.000642562
0.000607509
0.000573641
0.000540059
0.000514095
0.00050034
0.000509302
0.000498848
0.000513811
0.000501233
0.000506664
0.000515864
0.000538235
0.00058276
0.000630604
0.000729776
0.000796013
0.000922627
0.00105038
0.00115003
0.00123179
0.00131901
0.00140297
0.00148185
0.00156533
0.00176159
0.00171181
0.00178152
0.00185763
0.00191466
0.00198655
0.00206676
0.00216778
0.00226088
0.00235187
0.002452
0.00279139
0.00264755
0.00273296
0.00307415
0.00289944
0.00299525
0.00308833
0.00317608
0.0032663
0.00335803
0.0034489
0.0035519
0.00364043