/*--------------------------------*- C++ -*----------------------------------*\
  =========                 |
  \\      /  F ield         | OpenFOAM: The Open Source CFD Toolbox
   \\    /   O peration     | Website:  https://openfoam.org
    \\  /    A nd           | Version:  6
     \\/     M anipulation  |
\*---------------------------------------------------------------------------*/
FoamFile
{
    version     2.0;
    format      ascii;
    class       volScalarField;
    location    "0.1";
    object      AR;
}
// * * * * * * * * * * * * * * * * * * * * * * * * * * * * * * * * * * * * * //

dimensions      [0 0 0 0 0 0 0];

internalField   nonuniform List<scalar> 
8000
(
0.0135885
0.0134935
0.0131866
0.0123951
0.0118159
0.0122525
0.0128617
0.0132385
0.0134293
0.0135154
0.013545
0.0135463
0.0135246
0.0134609
0.0134568
0.0134463
0.0132058
0.0114465
0.0129368
0.0132248
0.013209
0.0130341
0.012682
0.0121931
0.0117296
0.0114321
0.0113182
0.011346
0.0113777
0.0103192
0.0113476
0.0119472
0.0122663
0.0124868
0.0126375
0.0127406
0.0127915
0.012766
0.0126141
0.0124446
0.0125552
0.0126
0.012538
0.0123956
0.0122058
0.011975
0.0117289
0.0114753
0.0111219
0.0103229
0.0108102
0.0107175
0.0107234
0.0107083
0.0106844
0.0106567
0.0106394
0.0106455
0.0106802
0.0107377
0.0108413
0.0109411
0.0110797
0.0114295
0.0115152
0.01169
0.0116916
0.0117672
0.0118045
0.0118279
0.0117639
0.0118922
0.0118872
0.0119753
0.0119691
0.0118697
0.0118708
0.0118544
0.0118264
0.0118141
0.0118401
0.0118447
0.0118782
0.0119862
0.0120463
0.0121174
0.0121794
0.0122329
0.0121793
0.0123466
0.0124107
0.0124695
0.0125125
0.0125437
0.012618
0.0126577
0.0126834
0.0127026
0.0127057
0.0127659
0.0135895
0.013491
0.0131617
0.0123185
0.0115885
0.0122521
0.0129038
0.0132605
0.0134403
0.013518
0.0135434
0.0135401
0.0135075
0.0133338
0.0133533
0.0134191
0.0133766
0.0132174
0.0131647
0.0131556
0.0131472
0.0129879
0.0126426
0.0121607
0.0117015
0.0113908
0.0113012
0.0113423
0.0114146
0.0113654
0.0117534
0.0120212
0.0122788
0.0124614
0.01258
0.012668
0.0127198
0.0127028
0.0125465
0.0120521
0.0124464
0.0125492
0.0124998
0.0123615
0.0121761
0.011949
0.0117097
0.0114669
0.0111411
0.0109603
0.0108219
0.0107559
0.0107173
0.0107004
0.01068
0.0106572
0.0106451
0.0106557
0.0106922
0.0107489
0.0108526
0.0109504
0.0110884
0.0114374
0.0115845
0.0116943
0.0116958
0.0117699
0.0118066
0.0118312
0.0118465
0.0118953
0.0118881
0.0119777
0.0119712
0.0118705
0.0118726
0.0118558
0.0118283
0.0118139
0.0118413
0.0118451
0.0118797
0.0119876
0.0120462
0.0121183
0.0121803
0.0122337
0.012279
0.0123474
0.0124112
0.0124701
0.012513
0.0125438
0.0126186
0.0126581
0.0126838
0.012703
0.0127057
0.0127663
0.0135857
0.0134643
0.0130681
0.0122647
0.0121877
0.0126546
0.0130876
0.0132756
0.0134172
0.01351
0.0135328
0.0135322
0.0134898
0.0129717
0.0129716
0.0133024
0.0133972
0.0133484
0.0128809
0.0122047
0.0128842
0.0128696
0.0125547
0.0120931
0.0116479
0.0112695
0.0112502
0.0113336
0.0114664
0.0116183
0.0118239
0.0120542
0.0122665
0.0124014
0.0124529
0.0124918
0.0125588
0.0125632
0.0125151
0.0124463
0.0125008
0.0125008
0.0124304
0.0122932
0.0121157
0.0118954
0.0116671
0.0114305
0.0111427
0.010981
0.0108623
0.0107303
0.0106872
0.0106829
0.010674
0.0106611
0.0106581
0.0106761
0.0107157
0.0107837
0.0108754
0.01097
0.0111069
0.0114532
0.0115884
0.0117035
0.0117534
0.0117759
0.011811
0.011838
0.0118577
0.011901
0.0118729
0.0119833
0.0119756
0.0118276
0.0118766
0.0118588
0.0118322
0.0117489
0.0118442
0.011846
0.0118829
0.0119904
0.011988
0.0121203
0.0121822
0.0122352
0.0122846
0.012349
0.0124123
0.0124713
0.0124963
0.0125314
0.0126198
0.012659
0.0126846
0.0127038
0.0127036
0.0127672
0.0135779
0.0134021
0.0127763
0.0124719
0.0126892
0.0129827
0.0132651
0.0134242
0.0135096
0.0135426
0.013551
0.0135425
0.0135123
0.0130519
0.0114869
0.0131916
0.0134192
0.0133998
0.0131211
0.0129653
0.0130192
0.0128422
0.012459
0.0119951
0.0115913
0.0110491
0.0111697
0.0113249
0.0114827
0.0116637
0.0118359
0.0120443
0.0122251
0.0123249
0.0122946
0.0120652
0.0123255
0.0122606
0.0123778
0.0123876
0.0124144
0.0123851
0.0123201
0.0121968
0.0120141
0.0117903
0.0115953
0.0113766
0.0111176
0.0109766
0.0108443
0.0106968
0.0106419
0.0106676
0.010675
0.0106728
0.0106779
0.0107034
0.0107481
0.0108343
0.0109061
0.0110202
0.0111338
0.0114781
0.0115912
0.0117168
0.0117655
0.0117858
0.011817
0.0118475
0.0118167
0.0119733
0.0119718
0.0119919
0.0119821
0.0118875
0.0118828
0.0118632
0.011838
0.0118287
0.0118486
0.0118473
0.0118882
0.0119941
0.0120562
0.0121235
0.012185
0.0122375
0.0122893
0.0123513
0.012414
0.0124732
0.012518
0.0125537
0.0126217
0.0126603
0.0126859
0.0127051
0.0127156
0.0127686
0.0135773
0.0132389
0.0110513
0.0121565
0.012875
0.0131873
0.0133936
0.013498
0.013542
0.0135557
0.0135481
0.013533
0.0135268
0.0132893
0.0131469
0.0133719
0.0134522
0.0134298
0.0132899
0.0131807
0.0130615
0.0127573
0.0123036
0.0118711
0.0115391
0.0112428
0.0112483
0.0113487
0.0114846
0.0116501
0.0118124
0.0119984
0.0121576
0.0122529
0.012278
0.0122966
0.012342
0.0123309
0.0122751
0.0120795
0.0122468
0.0122107
0.0121725
0.0120664
0.0119166
0.0116959
0.0114916
0.0112995
0.0110795
0.0109315
0.0108333
0.0107123
0.0106665
0.0106858
0.010691
0.0106941
0.0107033
0.0107355
0.0108032
0.0108771
0.0109419
0.0110554
0.0111691
0.0115311
0.0116393
0.0116839
0.0117812
0.0118002
0.0117578
0.011859
0.0118802
0.0119864
0.011992
0.0120029
0.0119905
0.0119008
0.0118906
0.011869
0.0118454
0.0118404
0.0118544
0.0117966
0.0118956
0.0119185
0.012064
0.0121276
0.0121887
0.0122405
0.0122943
0.0123542
0.0124163
0.0124756
0.0125221
0.0125614
0.0126241
0.0126621
0.0126876
0.0127068
0.0127235
0.0127703
0.0135775
0.0132593
0.0117871
0.0127007
0.0131613
0.0133507
0.0134737
0.0135203
0.0135507
0.0135591
0.0135553
0.0135468
0.0135359
0.0134313
0.0133869
0.0134337
0.0133908
0.0134055
0.0133327
0.013225
0.0129938
0.0125877
0.0120074
0.0116633
0.011475
0.011281
0.0112795
0.0113449
0.0114455
0.0116113
0.0117564
0.0119209
0.0120489
0.012157
0.0122131
0.0122585
0.012283
0.0122583
0.0121882
0.0121013
0.0120972
0.0119925
0.0119401
0.0119481
0.0117931
0.0115898
0.0113725
0.0112353
0.0110522
0.0108719
0.0108366
0.0107334
0.0106889
0.0107057
0.0107153
0.0107227
0.0107349
0.0107788
0.0108661
0.0109258
0.0109803
0.011097
0.0112115
0.0115568
0.0116573
0.0117064
0.0117999
0.0118194
0.0118426
0.0118724
0.0118947
0.0120021
0.0120109
0.0120153
0.0120005
0.0119133
0.0118998
0.0118761
0.011854
0.01185
0.0118611
0.0118086
0.0119687
0.0120132
0.0120709
0.0121326
0.0121934
0.0122442
0.0122995
0.0123577
0.0124192
0.0124787
0.0125263
0.0125567
0.0126269
0.0126643
0.0126897
0.0127088
0.0127299
0.0127724
0.0135857
0.0134004
0.0128757
0.0131557
0.0133718
0.0134505
0.0134733
0.0134864
0.0135374
0.0135496
0.0135474
0.0135361
0.0135189
0.0134816
0.0134622
0.013464
0.013432
0.013402
0.0133317
0.0131728
0.0127697
0.0123842
0.0119798
0.0116732
0.0114475
0.0111797
0.0112024
0.0113301
0.0112928
0.0115248
0.0116707
0.0117984
0.0119234
0.0120105
0.0120681
0.0121164
0.0121587
0.0121225
0.0120596
0.0119508
0.0118788
0.0119502
0.0119415
0.0118508
0.0117158
0.0114876
0.0111323
0.0111602
0.0110503
0.0109545
0.010872
0.0107952
0.0107208
0.010736
0.0107489
0.010763
0.0107795
0.0108207
0.0109184
0.0109782
0.0110219
0.011145
0.0114793
0.0115455
0.011613
0.011781
0.0118214
0.011842
0.0118607
0.0118868
0.0119086
0.0120194
0.0120287
0.0120291
0.0120119
0.0119922
0.0119101
0.0118845
0.0118636
0.0118052
0.0118689
0.0118724
0.0119829
0.0120269
0.0120773
0.0121384
0.0121989
0.0121604
0.0123049
0.0123617
0.0124225
0.0124822
0.0125308
0.0125751
0.0126302
0.0126669
0.0126922
0.0127113
0.0127354
0.0127748
0.0135563
0.0134701
0.0132859
0.0134016
0.0134812
0.0135085
0.0134934
0.0135267
0.0135435
0.0135403
0.0135267
0.0135107
0.0134912
0.01348
0.0134745
0.0134598
0.0134186
0.0133648
0.0132751
0.0130887
0.0127357
0.0121188
0.0118462
0.0115798
0.0113788
0.0112475
0.0112697
0.0113145
0.0113711
0.0114769
0.0114418
0.0116736
0.0117528
0.0118267
0.0118728
0.011891
0.0119731
0.0119685
0.0118997
0.0118631
0.0118803
0.0119186
0.0118883
0.0117783
0.0116568
0.0114728
0.0113031
0.0112153
0.0110635
0.010986
0.0109102
0.0108535
0.0107719
0.010793
0.0108068
0.0108217
0.0108397
0.0109035
0.0109751
0.0110587
0.0110981
0.0111727
0.011378
0.0116232
0.011752
0.0118069
0.011845
0.011867
0.0118789
0.0118692
0.0119103
0.0120382
0.0120472
0.012044
0.0119413
0.0120089
0.0119854
0.0118945
0.0118737
0.0118188
0.0118776
0.0118854
0.0119986
0.0120401
0.0120573
0.0121451
0.0122053
0.0122555
0.0123106
0.0123662
0.0124263
0.0124862
0.0125356
0.0125823
0.0126339
0.0126699
0.0126951
0.0127141
0.0127404
0.0127775
0.0135834
0.0135333
0.0134555
0.0134915
0.0135309
0.0135419
0.0135391
0.0135456
0.0135429
0.0135293
0.0135129
0.0134754
0.0134079
0.013417
0.0134207
0.0134108
0.0133194
0.0132628
0.0131374
0.012947
0.0126209
0.012229
0.0119016
0.0116172
0.0112195
0.0111127
0.0112534
0.0112787
0.0112226
0.0114225
0.0114895
0.0115405
0.011552
0.011604
0.0116893
0.011735
0.0116665
0.0117842
0.0117404
0.0116603
0.0118055
0.0118211
0.0117823
0.0117019
0.0116031
0.011458
0.0113361
0.0112191
0.0110741
0.0110111
0.0109606
0.0109059
0.0108749
0.0108596
0.0108503
0.010888
0.0109035
0.0109601
0.0110343
0.0111221
0.0111203
0.0113589
0.0115991
0.0115976
0.011733
0.0118345
0.0118704
0.0118936
0.011847
0.0119276
0.0120222
0.012059
0.0120659
0.0120598
0.0120421
0.0120259
0.0120009
0.0119063
0.0118382
0.0118848
0.0118524
0.0118768
0.0120144
0.0120535
0.0120662
0.012153
0.0122126
0.0122629
0.0123168
0.0123714
0.0124306
0.0124906
0.0125417
0.0125891
0.012638
0.0126733
0.0126985
0.0127173
0.0127449
0.0127804
0.0135941
0.0135674
0.0135361
0.01354
0.0135571
0.0135594
0.0135535
0.0135478
0.0135285
0.0134919
0.0134799
0.0134278
0.0131959
0.0130619
0.0133075
0.0133299
0.0132725
0.0131247
0.012892
0.0126732
0.012346
0.0121535
0.0118867
0.0116237
0.0113885
0.0111645
0.0112572
0.0112766
0.01132
0.0113778
0.0114099
0.011417
0.0112918
0.0112089
0.0113368
0.011508
0.0115607
0.0115902
0.0116048
0.0116494
0.0117093
0.0117267
0.0116906
0.0116203
0.0115136
0.0114225
0.011329
0.0112169
0.0110787
0.0110332
0.0109984
0.0109721
0.0109396
0.0109184
0.0109312
0.0109442
0.010931
0.0109875
0.01112
0.0111908
0.0112455
0.0115589
0.0116651
0.0117692
0.0117501
0.0117905
0.0118971
0.0119217
0.0118938
0.012023
0.0120539
0.0120809
0.0120839
0.0120764
0.0120604
0.012043
0.0119367
0.0119041
0.0118991
0.0119004
0.011904
0.0119798
0.0120299
0.0120673
0.0121088
0.0121671
0.0122206
0.0122709
0.0123234
0.0123772
0.0124354
0.0124955
0.0125479
0.0125958
0.0126425
0.0126771
0.0127021
0.0127209
0.0127492
0.0127836
0.0135955
0.0135749
0.0135529
0.0135586
0.013563
0.0135605
0.0135512
0.0135362
0.0135174
0.0134877
0.0134336
0.0133366
0.0127914
0.0126592
0.0131088
0.0132179
0.0131824
0.0130381
0.0127775
0.0125301
0.0122992
0.0120709
0.0118234
0.0116124
0.0114283
0.011271
0.0112478
0.0112673
0.0112795
0.0113152
0.011333
0.0113075
0.0112587
0.0112778
0.0113189
0.0111989
0.011344
0.0112429
0.0114413
0.011358
0.0115614
0.011612
0.0115858
0.0115003
0.0114416
0.0113802
0.0113198
0.0112205
0.0110539
0.0110556
0.0110393
0.0110241
0.0110139
0.0109773
0.0109672
0.0110032
0.0109835
0.0111076
0.0111893
0.0112629
0.011552
0.0114776
0.0117203
0.0117565
0.0118578
0.0119006
0.011925
0.0119508
0.0120253
0.0119697
0.0120836
0.0121012
0.0121021
0.0120932
0.0120786
0.01206
0.0120359
0.0120027
0.0119141
0.0119004
0.0119842
0.0120032
0.012046
0.0120811
0.0121237
0.012177
0.0122294
0.0122793
0.0123306
0.0123369
0.0124406
0.0125008
0.0125545
0.0126024
0.0126473
0.0126813
0.0127062
0.0127248
0.0127545
0.0127871
0.0135902
0.0135666
0.0135566
0.0135493
0.0135401
0.0135294
0.0135296
0.0135028
0.0134791
0.0134616
0.0134107
0.0133015
0.0128998
0.0121507
0.0129333
0.0131407
0.0131471
0.012992
0.0125689
0.0122689
0.0121874
0.0119522
0.0116793
0.0115777
0.0114348
0.0111974
0.0111266
0.0112515
0.0112203
0.0111476
0.0112307
0.0112342
0.0112259
0.0112394
0.0112594
0.0112182
0.0112602
0.0112232
0.0112283
0.0113618
0.0114375
0.011474
0.0114581
0.0113988
0.0113546
0.0113411
0.0112882
0.0112446
0.0111687
0.0110866
0.0110576
0.0110479
0.0110376
0.0110582
0.0110699
0.011089
0.0111177
0.0111828
0.0112613
0.0115686
0.0116459
0.0115642
0.0118026
0.0118497
0.0118972
0.0119386
0.011924
0.0119597
0.0120676
0.0120886
0.0121107
0.0121219
0.0121209
0.0121106
0.0120959
0.0120774
0.0120551
0.0120254
0.0119918
0.0119987
0.0120059
0.0120244
0.0120624
0.0120954
0.0121379
0.0121876
0.0122388
0.0122884
0.0123381
0.0123924
0.0124465
0.0124849
0.0125614
0.0126091
0.0126525
0.0126858
0.0127106
0.0127289
0.0127598
0.0127908
0.0135861
0.013574
0.0135612
0.0135368
0.0135112
0.013503
0.0134927
0.0134579
0.013433
0.0133827
0.0133098
0.0131752
0.0128588
0.0123986
0.0128946
0.0130978
0.0130946
0.0129332
0.0125799
0.0123008
0.0120977
0.011841
0.0115308
0.0115425
0.011434
0.0112627
0.0112706
0.0112702
0.0110771
0.0111768
0.0110928
0.0111546
0.011125
0.0111301
0.0111748
0.0111804
0.011155
0.0111556
0.011238
0.0112704
0.0111914
0.0112393
0.0113586
0.0112954
0.0111605
0.0113244
0.0112933
0.0111915
0.0112791
0.0111408
0.0111252
0.0111441
0.0111397
0.0111276
0.0110843
0.0111033
0.0111932
0.0112143
0.0115725
0.0116317
0.0117255
0.011692
0.0117452
0.0118901
0.0118662
0.0119766
0.0119619
0.0120885
0.0121051
0.0121208
0.0121354
0.0121427
0.0121399
0.0121288
0.0121135
0.0120946
0.0120735
0.0120472
0.0119309
0.012022
0.0120275
0.0119614
0.0120789
0.0121103
0.0121522
0.0121986
0.0122488
0.0122979
0.012346
0.0124023
0.0124217
0.0125141
0.0125686
0.0126159
0.0126579
0.0126907
0.0127154
0.0127344
0.012765
0.0127948
0.0135847
0.0135584
0.0135423
0.0134744
0.0133675
0.0134024
0.013398
0.0133152
0.013229
0.0129017
0.0130824
0.0129121
0.012787
0.0124175
0.0128319
0.013035
0.0129915
0.0127732
0.0124513
0.0121756
0.0119922
0.0117003
0.0115307
0.0115264
0.0114508
0.0113807
0.0113298
0.0113153
0.0112536
0.0112257
0.0111941
0.011156
0.0111054
0.011055
0.0111103
0.0111143
0.0111076
0.011103
0.0111008
0.0112373
0.0112577
0.0112856
0.0112811
0.0112378
0.0111366
0.0113351
0.0113684
0.0113966
0.011358
0.011346
0.0113878
0.0114054
0.0113447
0.0111435
0.0111634
0.0112368
0.0112729
0.0115066
0.0116259
0.0117271
0.0118237
0.0118543
0.0118141
0.011932
0.0119776
0.012073
0.0121
0.0121273
0.0121371
0.0121493
0.0121587
0.0121629
0.0121586
0.0121468
0.0121312
0.012112
0.0120921
0.0120688
0.0120366
0.0120439
0.0120479
0.0120633
0.0120951
0.0120748
0.0121715
0.0121099
0.0121695
0.012308
0.0123544
0.0124124
0.0124633
0.0125224
0.0125761
0.0126229
0.0126636
0.0126959
0.0127204
0.01274
0.0127704
0.012799
0.013539
0.0135253
0.0134725
0.0132908
0.0123302
0.0130455
0.0131523
0.0130402
0.012836
0.0128451
0.0128202
0.012843
0.0127645
0.0125239
0.0127259
0.0129482
0.0128512
0.0126094
0.0124108
0.0120681
0.0119031
0.0117223
0.0115615
0.0115639
0.0114661
0.0114037
0.0112517
0.0113558
0.0113381
0.0112788
0.0112277
0.0112158
0.0111169
0.0111485
0.0110782
0.0110807
0.0110693
0.0109879
0.0110734
0.0112182
0.0112342
0.0112318
0.0112279
0.0112171
0.0112746
0.0113817
0.0114334
0.0114746
0.0114973
0.0112521
0.0115654
0.0115006
0.0115159
0.011523
0.0115501
0.0115345
0.0115816
0.011634
0.0117192
0.0117032
0.0118144
0.0119037
0.0119377
0.0119749
0.0120678
0.012118
0.0121441
0.0121626
0.0120944
0.0121751
0.0121867
0.0121887
0.0121827
0.0121649
0.0121487
0.0121299
0.0121099
0.0120898
0.0119776
0.0120656
0.0120685
0.0120828
0.0121116
0.0121418
0.0121869
0.0122232
0.0122704
0.0123181
0.0123633
0.0124229
0.0124454
0.0125309
0.0125839
0.01263
0.0126696
0.0127015
0.0127258
0.0127457
0.0127758
0.0128035
0.0132042
0.0134028
0.0133231
0.0129051
0.0123122
0.0128135
0.0128542
0.0126042
0.012657
0.0127015
0.0126894
0.0126208
0.0126418
0.0126009
0.0127476
0.0128108
0.0127316
0.0125789
0.0123652
0.0121202
0.0118713
0.0117534
0.0116797
0.0115679
0.011427
0.0113188
0.0113277
0.011426
0.0114144
0.0113524
0.0112031
0.0111723
0.0112768
0.011273
0.0112285
0.0110374
0.0110295
0.0110952
0.0111536
0.0111271
0.011208
0.0111924
0.0111102
0.0112542
0.0112394
0.0114506
0.011383
0.0115777
0.011612
0.0115471
0.0116395
0.0116131
0.0116117
0.0116103
0.011629
0.0116369
0.0116835
0.0116879
0.0117108
0.0118332
0.0118459
0.0118804
0.011996
0.0120669
0.012127
0.0121676
0.0121905
0.012201
0.0122067
0.0122108
0.0122135
0.0122129
0.0122059
0.0121921
0.0120731
0.0121513
0.0121313
0.0120779
0.0120917
0.0120274
0.0120926
0.0121046
0.0121317
0.0121617
0.0122053
0.0121426
0.012285
0.0123309
0.0123743
0.0123972
0.0124885
0.0125414
0.0125936
0.0126387
0.0126771
0.0127087
0.0127326
0.0127528
0.0127825
0.0128091
0.012684
0.0131874
0.013137
0.0129016
0.0126801
0.0127789
0.0125877
0.0123741
0.0124739
0.0124993
0.0123965
0.0124278
0.0124107
0.0125274
0.0125822
0.0126673
0.0125776
0.0123933
0.0122007
0.012065
0.0119232
0.0118332
0.0117423
0.0116313
0.0114434
0.0114198
0.0114239
0.0115054
0.0114289
0.0114608
0.0114306
0.0114161
0.011406
0.0113766
0.0113454
0.0112929
0.0112813
0.011264
0.0111347
0.0112067
0.0111261
0.0110743
0.0111152
0.0113381
0.0114504
0.0115454
0.0117442
0.0118104
0.0117884
0.0117398
0.0117233
0.0116437
0.011655
0.0116597
0.0117693
0.0117883
0.0117039
0.0117672
0.0119094
0.0118715
0.011911
0.0119729
0.012101
0.0121402
0.0121849
0.0122189
0.0122415
0.0122466
0.0122447
0.012242
0.0122414
0.0122394
0.0122313
0.0122175
0.0122004
0.0121759
0.0121575
0.012142
0.0121236
0.0121201
0.0121191
0.0121297
0.0121546
0.0121901
0.0122262
0.0122607
0.0123025
0.0123469
0.0123901
0.0124518
0.0125058
0.0125558
0.0126053
0.0126492
0.0126862
0.0127176
0.012741
0.0127613
0.0127905
0.012816
0.0124741
0.0129343
0.0129551
0.0128934
0.0127861
0.0127022
0.0124888
0.0123815
0.0124003
0.0123441
0.0121216
0.0122646
0.0123455
0.0123715
0.0124689
0.0124159
0.0123889
0.0122462
0.0119833
0.0119199
0.0118779
0.0118468
0.0117865
0.0116652
0.0115614
0.0115936
0.0116067
0.0116051
0.0115704
0.0115718
0.0114506
0.01142
0.0114925
0.0114276
0.011335
0.0114392
0.0114086
0.011368
0.0113097
0.0111806
0.0112692
0.0112754
0.0113461
0.0112959
0.0115445
0.0117652
0.0118325
0.0118218
0.0118379
0.0118447
0.0118364
0.011756
0.0118352
0.0117628
0.0118669
0.0118092
0.0118223
0.0118608
0.0119822
0.0120209
0.0120597
0.0121335
0.0121752
0.012203
0.0121231
0.012269
0.0122824
0.0122837
0.0121767
0.0121705
0.0122688
0.0122655
0.012257
0.0122425
0.0122257
0.0122062
0.0121835
0.0121696
0.0121543
0.012149
0.0121471
0.0121549
0.0120781
0.0122141
0.0122477
0.0122812
0.0123206
0.012364
0.0124077
0.012434
0.0125228
0.0125705
0.0126174
0.0126602
0.0126959
0.012727
0.0127502
0.0127701
0.0127987
0.0128234
0.0124221
0.0126874
0.0127865
0.0128226
0.0127486
0.012614
0.0124773
0.0124142
0.0123778
0.0122807
0.0121206
0.0120938
0.0121953
0.0122414
0.0122786
0.0122752
0.0121916
0.0120782
0.0120248
0.0119534
0.011891
0.0118191
0.0117743
0.0117
0.011648
0.0116718
0.0116843
0.0117047
0.0117322
0.0117
0.0116529
0.0116876
0.0116488
0.0115026
0.0116012
0.0115748
0.0114276
0.0114597
0.0114194
0.0113858
0.0113778
0.0112775
0.0114666
0.0115556
0.0117751
0.0117098
0.0118029
0.0119056
0.0119211
0.0119221
0.0119101
0.0118265
0.0118317
0.0119208
0.0119391
0.0119564
0.0119763
0.0120154
0.0120539
0.0121211
0.0121661
0.0121418
0.0122381
0.0121474
0.0122897
0.0123109
0.0123194
0.0123174
0.0123103
0.0123015
0.012209
0.0122907
0.0122816
0.0122672
0.0122508
0.0122305
0.012215
0.0122015
0.0121831
0.0120832
0.0121741
0.01218
0.0122081
0.0122369
0.0122695
0.0123022
0.0123386
0.0123819
0.0124271
0.0124874
0.0125401
0.0125852
0.0126313
0.0126717
0.0127061
0.012737
0.0127598
0.0127792
0.0128073
0.0128312
0.0124089
0.0125191
0.0126361
0.0127034
0.0126507
0.0125499
0.0124814
0.0124344
0.0123741
0.012268
0.0121219
0.0120219
0.0120606
0.0120428
0.0121225
0.0120899
0.0120312
0.0119913
0.0119691
0.0119589
0.011927
0.0118771
0.0118866
0.011827
0.011767
0.0117484
0.011728
0.0117795
0.0118606
0.0118157
0.0118691
0.0118683
0.0118018
0.0117568
0.0116989
0.0116643
0.0115973
0.0115606
0.0115236
0.0114734
0.0114772
0.0115205
0.0116637
0.0118047
0.0118779
0.0118951
0.0120032
0.0120464
0.0120596
0.012058
0.0119482
0.0119424
0.0119405
0.0119979
0.0119624
0.0120342
0.0120842
0.0120364
0.0121601
0.0121974
0.0122355
0.0122691
0.0122966
0.0123139
0.0123338
0.0123499
0.0123547
0.0123501
0.0123417
0.0123316
0.0123228
0.0123165
0.012307
0.0122916
0.0122751
0.012255
0.0121348
0.0122288
0.012217
0.0122099
0.0122069
0.0122119
0.0121255
0.0122612
0.012291
0.0123237
0.012358
0.0124005
0.0124475
0.0125072
0.0125578
0.0126001
0.0126454
0.0126845
0.012717
0.0127474
0.01277
0.012789
0.0128163
0.0128393
0.0124056
0.0124458
0.0125265
0.0125877
0.0125639
0.0125194
0.0124941
0.012458
0.0123939
0.0122905
0.0121395
0.0120182
0.0119233
0.011915
0.0119427
0.0118499
0.0118284
0.0118594
0.011897
0.0119434
0.0119638
0.0119861
0.011966
0.0119105
0.0118625
0.0117894
0.0118605
0.011914
0.0119628
0.0119757
0.0119859
0.0119752
0.0119522
0.0119186
0.0118649
0.0117381
0.0116703
0.0116072
0.011604
0.0115929
0.0116119
0.0117034
0.0118041
0.0119115
0.0119377
0.012051
0.0120642
0.0121351
0.0121461
0.012144
0.0121351
0.0121344
0.0121307
0.0121251
0.0121362
0.0121546
0.0121778
0.0122036
0.0122312
0.0122664
0.0122984
0.0123248
0.0123454
0.01236
0.0122979
0.0123873
0.0123912
0.0123843
0.0123736
0.0123609
0.0123504
0.0123425
0.0123318
0.0123167
0.0122995
0.0122796
0.0122658
0.0122546
0.0122441
0.0122385
0.0122344
0.0122378
0.0122588
0.0122849
0.0123132
0.0123444
0.0123796
0.0123703
0.0124676
0.0125267
0.0125757
0.0126171
0.0126604
0.0126977
0.0127299
0.0127584
0.0127805
0.0127992
0.0128257
0.0128479
0.0124056
0.0124268
0.0124729
0.0125169
0.0125232
0.0125307
0.0125394
0.0125157
0.0124547
0.0123573
0.0122116
0.0120189
0.011911
0.0117906
0.0118498
0.0117347
0.011756
0.0118659
0.0118665
0.0119629
0.011946
0.0120498
0.0120392
0.0119793
0.0118909
0.0118821
0.011942
0.0119602
0.0120423
0.0120682
0.0120673
0.0120509
0.0119732
0.012009
0.0119542
0.0118822
0.0117278
0.0116971
0.0116812
0.0116361
0.0117377
0.0117973
0.0119336
0.0120534
0.0120948
0.0121501
0.0121927
0.0122162
0.012224
0.0122212
0.0121119
0.0122185
0.0122151
0.0121266
0.0121293
0.0122334
0.0122552
0.0122778
0.0121985
0.0123255
0.0123511
0.0123738
0.0123909
0.0124034
0.0124158
0.0124266
0.0124279
0.0124187
0.0124061
0.0123912
0.0123235
0.0123705
0.0123581
0.0123412
0.0123241
0.0123046
0.0122913
0.0122806
0.0122708
0.0122658
0.0121523
0.0121544
0.0122851
0.012309
0.0123356
0.0123669
0.0124013
0.0124426
0.0124902
0.0125463
0.0125939
0.0126344
0.0126757
0.0127113
0.0127428
0.0127698
0.0127915
0.0128106
0.0128356
0.012857
0.0124074
0.0124311
0.0124682
0.0125056
0.0125409
0.0125921
0.0126277
0.0126126
0.0125524
0.0124602
0.012331
0.0121622
0.0120161
0.0119288
0.0118886
0.0118349
0.0118621
0.0119454
0.011982
0.0120512
0.0121041
0.0121354
0.0120817
0.0120677
0.0120216
0.0119915
0.0119961
0.0120314
0.0120913
0.0121279
0.0121298
0.0120972
0.0120768
0.012051
0.0120165
0.0119761
0.0119419
0.0117721
0.0117769
0.0118195
0.0119027
0.0120782
0.0120676
0.0121161
0.0121923
0.0121502
0.0122684
0.0122844
0.0122891
0.0122864
0.0121792
0.0122907
0.0122881
0.0122853
0.0122919
0.012304
0.0123213
0.0123393
0.012356
0.0123067
0.0124004
0.0124219
0.0124375
0.0124484
0.012461
0.0124681
0.0124666
0.0124554
0.0124406
0.0124239
0.0124092
0.0123986
0.0123853
0.0123676
0.0123488
0.0123298
0.0123171
0.0123056
0.0122966
0.0122923
0.0122881
0.0121862
0.0123104
0.0123339
0.0123584
0.0123909
0.0124245
0.0124658
0.012513
0.0125664
0.0126121
0.0126517
0.0126911
0.0127252
0.0127557
0.0127815
0.0128028
0.0128221
0.0128457
0.0128667
0.0124114
0.0124492
0.0125002
0.0125496
0.0126142
0.0126985
0.0127492
0.0127335
0.0126659
0.0125732
0.0124597
0.0123208
0.0121757
0.0120764
0.0120029
0.0119753
0.0119315
0.0120319
0.0120994
0.0121469
0.012216
0.0122283
0.0121971
0.0121578
0.0121258
0.0121091
0.012091
0.0121071
0.0121034
0.012171
0.0121912
0.0121545
0.0121019
0.0120865
0.012024
0.0119875
0.0119775
0.0118602
0.012007
0.0118981
0.0120981
0.012121
0.0121466
0.012129
0.012276
0.0123162
0.0122823
0.01235
0.0122911
0.0123447
0.0122712
0.0123518
0.0123497
0.0123475
0.0122748
0.0123645
0.0123797
0.0123962
0.0124134
0.0124314
0.0124514
0.0124714
0.0124864
0.0124571
0.012506
0.0125098
0.012506
0.0124922
0.0124752
0.0124572
0.0124421
0.0124284
0.0124135
0.0123942
0.0123753
0.0123555
0.0123422
0.0123315
0.0123225
0.0123183
0.012315
0.0123171
0.0122507
0.0123581
0.0123827
0.0124146
0.0124496
0.0124901
0.0125353
0.0125869
0.0126306
0.0126691
0.0127068
0.0127395
0.0127689
0.0127937
0.0128144
0.0128337
0.0128562
0.0128766
0.0124193
0.0124834
0.0125651
0.0126408
0.0127331
0.0128367
0.0128886
0.0128605
0.0127781
0.0126771
0.0125718
0.0124587
0.0123352
0.0122377
0.0121628
0.0121349
0.0121746
0.0122244
0.0121886
0.0122793
0.0123179
0.0123179
0.0122925
0.012248
0.0122272
0.0122056
0.0121867
0.0121592
0.0121625
0.0122232
0.0122497
0.0122352
0.0122013
0.0121469
0.012058
0.0119757
0.0119708
0.0119971
0.0120269
0.0120361
0.0121513
0.0121217
0.0122521
0.0122538
0.0123148
0.0123976
0.012415
0.0124203
0.0124163
0.0123571
0.0124117
0.0124134
0.012411
0.0124082
0.0124129
0.0124237
0.0124386
0.0124546
0.0124713
0.0124885
0.0125041
0.0125213
0.0125362
0.0125422
0.0125516
0.0125521
0.0125453
0.0125299
0.0125109
0.0124908
0.0124738
0.0124594
0.0124431
0.0124223
0.012402
0.012383
0.0123682
0.0123565
0.0123481
0.0123446
0.0123426
0.0123457
0.0123616
0.0123841
0.0124071
0.0124399
0.0124745
0.0125152
0.0125584
0.0126074
0.0126494
0.0126866
0.0127227
0.0127539
0.0127822
0.0128061
0.0128264
0.0128455
0.012867
0.0128869
0.0124349
0.0125427
0.0126688
0.0127752
0.0128862
0.012992
0.0130316
0.0129838
0.0128813
0.0127663
0.0126615
0.0125647
0.0124662
0.0123882
0.0123304
0.0123247
0.0123483
0.0123704
0.0123623
0.0123956
0.0124067
0.012397
0.0123758
0.0123494
0.0123226
0.0122918
0.0122658
0.0122137
0.0121993
0.0122756
0.0122933
0.012302
0.0122669
0.012206
0.0121224
0.0120424
0.0120307
0.0119993
0.0121014
0.0121769
0.0122443
0.0123036
0.0123543
0.0124058
0.0124507
0.0124855
0.0124989
0.0124707
0.0124892
0.0124766
0.0124832
0.0124815
0.0124771
0.0124735
0.0124778
0.0124863
0.0125005
0.0125154
0.0124989
0.0125461
0.0125573
0.012547
0.0125854
0.0125913
0.012597
0.0125945
0.0125848
0.0125672
0.0125466
0.0125246
0.0125062
0.0124909
0.0124727
0.0124515
0.0124306
0.0124102
0.0123954
0.0123836
0.0123744
0.0123707
0.012369
0.0123733
0.0123894
0.0124105
0.012434
0.0124663
0.0125002
0.0125401
0.0125825
0.0126281
0.0126683
0.0127043
0.0127387
0.0127687
0.0127958
0.0128188
0.0128386
0.0128575
0.0128779
0.0128974
0.0124667
0.0126428
0.0128206
0.0129498
0.0130607
0.0131499
0.0131681
0.0130993
0.0129768
0.0128449
0.012734
0.0126451
0.0125664
0.0125076
0.0124698
0.0124691
0.0124789
0.0124834
0.0124782
0.0124839
0.0124786
0.0124638
0.0124487
0.0124325
0.0124148
0.0123747
0.0123266
0.012324
0.0122965
0.0123451
0.0123804
0.0123677
0.0123243
0.0122646
0.0121932
0.012145
0.0121226
0.0120818
0.0122078
0.0122795
0.0123507
0.0124114
0.0124622
0.0125105
0.0125296
0.0125738
0.0125827
0.0125696
0.0125644
0.0125529
0.0125567
0.0125524
0.0125465
0.0125415
0.0125447
0.012551
0.0125638
0.0125775
0.012588
0.0126032
0.0126105
0.0126191
0.0126345
0.0126393
0.0126413
0.0126357
0.0126236
0.0126047
0.012583
0.0125598
0.0125376
0.0125227
0.0125035
0.0124812
0.01246
0.0124396
0.0124233
0.0124108
0.0124021
0.0123989
0.0123975
0.0124029
0.0124168
0.0124379
0.0124623
0.0124926
0.0125269
0.0125661
0.0126066
0.0126491
0.0126873
0.012722
0.0127548
0.0127837
0.0128096
0.0128318
0.0128511
0.0128697
0.0128891
0.0129083
0.012531
0.0128025
0.0130237
0.0131525
0.0132394
0.0132973
0.0132922
0.0132077
0.0130688
0.0129201
0.0127984
0.0127103
0.0126437
0.012599
0.0125733
0.0125708
0.0125711
0.0125663
0.0125574
0.0125516
0.0125405
0.0125232
0.0125178
0.0125115
0.0125065
0.0124965
0.0124677
0.0124396
0.0124527
0.0124652
0.0124609
0.0124282
0.0123795
0.0123248
0.0122702
0.0122347
0.0122214
0.0122619
0.0123242
0.0123914
0.0124643
0.0125214
0.0125703
0.0126136
0.0126411
0.0126615
0.0126647
0.0126496
0.0126405
0.0126278
0.0126299
0.0126237
0.0126165
0.0126106
0.0126119
0.0126157
0.0126275
0.0126397
0.0126488
0.0126597
0.0126627
0.012671
0.0126832
0.0126863
0.012685
0.0126766
0.0126622
0.0126416
0.0126189
0.0125949
0.0125519
0.0125544
0.0125342
0.0125121
0.01249
0.0124692
0.0124531
0.0124397
0.0124305
0.0124265
0.0124259
0.0124317
0.0124467
0.012467
0.0124898
0.0125201
0.0125531
0.0125922
0.0126306
0.0126703
0.0127063
0.01274
0.012771
0.0127989
0.0128235
0.012845
0.0128639
0.0128822
0.0129012
0.0129194
0.0126586
0.0130362
0.0132621
0.0133573
0.013402
0.0134234
0.0134002
0.0133099
0.0131626
0.0129998
0.0128634
0.0127709
0.0127096
0.0126728
0.0126532
0.0126478
0.0126422
0.0126325
0.012621
0.0126119
0.0126021
0.0125843
0.0125904
0.012599
0.0125905
0.0126179
0.0126044
0.012578
0.0125518
0.0125585
0.012532
0.0124846
0.0124358
0.0123917
0.0123528
0.0123322
0.0123336
0.0123875
0.0124475
0.0125121
0.0125606
0.0126267
0.0126701
0.0127122
0.0127359
0.0127461
0.012744
0.0127277
0.0127161
0.0127038
0.012702
0.0126942
0.012686
0.0126792
0.0126785
0.0126666
0.0126903
0.0127011
0.012708
0.0127149
0.0127176
0.0127229
0.0127307
0.0127317
0.0127274
0.0127163
0.0127
0.0126782
0.0126547
0.0126294
0.0126047
0.0125867
0.0125655
0.0125428
0.0125211
0.0124998
0.0124825
0.0124695
0.012461
0.0124567
0.0124561
0.0124629
0.0124774
0.0124958
0.0125184
0.0125478
0.0125803
0.012618
0.0126547
0.0126915
0.0127253
0.012758
0.0127874
0.0128142
0.0128377
0.0128584
0.0128769
0.0128948
0.0129134
0.0129307
0.012912
0.0133307
0.0134898
0.0135284
0.0135305
0.0135215
0.0134888
0.0134046
0.0132602
0.0130885
0.0129363
0.0128364
0.0127756
0.0127422
0.0127244
0.0127162
0.0127068
0.0126945
0.0126826
0.0126754
0.0126728
0.0126735
0.0126933
0.0127095
0.0127237
0.0127393
0.0127251
0.0126942
0.0126665
0.0126419
0.0125991
0.0125361
0.0124975
0.0124655
0.0124434
0.0124414
0.0124375
0.0125131
0.0125748
0.0126331
0.0126888
0.0127276
0.0127608
0.0128059
0.0128235
0.0128264
0.0128199
0.0128029
0.0127896
0.0127762
0.012772
0.012763
0.012754
0.0127465
0.0127441
0.0127401
0.0127522
0.0127611
0.0127654
0.0127683
0.012771
0.0127722
0.012777
0.0127759