/*--------------------------------*- C++ -*----------------------------------*\
  =========                 |
  \\      /  F ield         | OpenFOAM: The Open Source CFD Toolbox
   \\    /   O peration     | Website:  https://openfoam.org
    \\  /    A nd           | Version:  6
     \\/     M anipulation  |
\*---------------------------------------------------------------------------*/
FoamFile
{
    version     2.0;
    format      ascii;
    class       volScalarField;
    location    "0.1";
    object      C2H2;
}
// * * * * * * * * * * * * * * * * * * * * * * * * * * * * * * * * * * * * * //

dimensions      [0 0 0 0 0 0 0];

internalField   nonuniform List<scalar> 
8000
(
4.21039e-06
4.04604e-05
0.00030853
0.00133616
0.00232634
0.00143827
0.000611135
0.000202997
5.85029e-05
1.83179e-05
8.10122e-06
6.54724e-06
1.0891e-05
4.15937e-05
3.82566e-05
3.93589e-05
9.90491e-05
0.00242466
0.000268911
0.000118081
0.000124976
0.000188264
0.00068207
0.00246168
0.00415371
0.00464373
0.00471391
0.00465775
0.00449006
0.00295443
0.00224869
0.00325556
0.00219693
0.00143123
0.00099298
0.000764867
0.000684386
0.000754138
0.00111973
0.00161324
0.00129119
0.00115759
0.00130679
0.00173761
0.0024299
0.0033779
0.00419063
0.00466769
0.00461588
0.0033741
0.00259249
0.00419436
0.00429618
0.00426937
0.00422316
0.00416541
0.00411863
0.00410181
0.00411863
0.0041667
0.00432844
0.00446615
0.00463937
0.00503634
0.00479761
0.0040248
0.00424117
0.00383805
0.00375965
0.00370068
0.00352948
0.00352846
0.00354448
0.00339266
0.00341038
0.00358534
0.00358195
0.00362895
0.00370398
0.00374029
0.00368004
0.00367152
0.00357882
0.00336046
0.00312104
0.00281088
0.00251203
0.00226683
0.0021676
0.00175509
0.0014803
0.00123745
0.0010613
0.000938252
0.000692085
0.00056789
0.000495622
0.000443863
0.000427778
0.000308
4.11165e-06
4.3776e-05
0.000345741
0.00145375
0.00270597
0.00144997
0.000575073
0.000192369
5.35657e-05
1.65578e-05
7.55321e-06
7.13321e-06
1.53832e-05
0.000132892
9.29123e-05
5.12274e-05
7.16612e-05
0.000155601
0.000168878
0.000186495
0.000156078
0.000229292
0.000797756
0.00259527
0.00421145
0.00467485
0.00472081
0.00466857
0.00450148
0.00423368
0.00374637
0.00304713
0.00215332
0.00151457
0.00116589
0.000961188
0.00086547
0.000918384
0.00131161
0.00174758
0.00161076
0.00130849
0.00143051
0.00186053
0.00254181
0.00346632
0.00423377
0.0046852
0.00464073
0.00454054
0.00443041
0.00434281
0.00428835
0.00425569
0.00421377
0.00416238
0.0041223
0.00411076
0.0041308
0.00417852
0.00434168
0.00448001
0.0046461
0.00498896
0.0046217
0.00401546
0.00423091
0.00383069
0.0037532
0.00369117
0.00365481
0.00351813
0.00354091
0.00338294
0.0034024
0.00358235
0.00357604
0.00362457
0.00369875
0.00374013
0.00367605
0.00366973
0.00357385
0.00335478
0.00312102
0.00280666
0.00250791
0.00226361
0.00205259
0.0017519
0.00147836
0.00123555
0.00105984
0.000937858
0.00069087
0.000567091
0.000495015
0.000443297
0.000428071
0.000307556
4.65636e-06
6.07855e-05
0.000486686
0.00178853
0.00153136
0.000923959
0.000388812
0.000242648
8.33571e-05
1.70798e-05
6.6625e-06
7.66392e-06
2.06163e-05
0.000234636
0.00036718
8.62725e-05
5.92346e-05
7.54141e-05
0.000251635
0.00148583
0.00027917
0.000343134
0.00106652
0.00286805
0.00431818
0.00470156
0.00471892
0.00469143
0.00450972
0.0041402
0.00367257
0.0029724
0.00219755
0.0017182
0.001565
0.00147084
0.00129711
0.00130057
0.00142929
0.00162757
0.0014742
0.00146784
0.00165893
0.00210629
0.00276797
0.00364377
0.00432359
0.00474247
0.00465817
0.00458868
0.00445733
0.0043087
0.00423991
0.00422339
0.00419745
0.00415943
0.00413063
0.00412896
0.00415525
0.00426972
0.00436922
0.00451031
0.00465863
0.00502833
0.00459965
0.00399517
0.00385915
0.00381398
0.00373945
0.00367119
0.00362283
0.00349855
0.0032555
0.00336122
0.00338511
0.00339434
0.00356302
0.00361498
0.00368736
0.00354489
0.0036671
0.00366589
0.00356258
0.0033431
0.00287306
0.00279728
0.00249927
0.00225666
0.00202915
0.00174554
0.00147413
0.00123138
0.000972718
0.000851255
0.000688187
0.000565353
0.000493682
0.000442053
0.000405369
0.000306578
6.27543e-06
9.34631e-05
0.000882625
0.00126419
0.00091282
0.000528444
0.000221772
7.65212e-05
2.26703e-05
8.37422e-06
4.85367e-06
5.43253e-06
1.33896e-05
8.12777e-05
0.00258272
0.000111063
5.05728e-05
5.86258e-05
0.00014422
0.00023942
0.000203911
0.000412894
0.00140882
0.00327703
0.00442289
0.00240833
0.00468867
0.00472086
0.00454046
0.00415631
0.00372615
0.00303215
0.00234974
0.00198953
0.00209697
0.00177746
0.00199463
0.00161431
0.00184485
0.00182208
0.00174451
0.00182599
0.00202396
0.00245484
0.00316938
0.00397788
0.00448822
0.0047699
0.00464909
0.00453131
0.00443886
0.00425585
0.00253052
0.0041902
0.00418677
0.00416267
0.00414421
0.0041534
0.00418879
0.00432016
0.00440795
0.00456802
0.00467159
0.00504974
0.00455623
0.00396594
0.00382818
0.00378708
0.00372014
0.00364236
0.00342589
0.00339596
0.00340112
0.00332688
0.00335935
0.00352889
0.00354301
0.00360056
0.00367039
0.00369962
0.003653
0.00366032
0.0035445
0.0033274
0.00307706
0.00278259
0.00248633
0.00224631
0.00200936
0.00173641
0.00146776
0.00122513
0.00104466
0.000907355
0.000683989
0.000562744
0.000491678
0.000440165
0.000410377
0.000305039
5.61489e-06
0.000131508
0.00254296
0.00175796
0.000670529
0.000311562
0.000108461
3.08017e-05
1.06466e-05
4.80298e-06
3.56898e-06
3.12532e-06
3.48212e-06
9.38117e-05
0.000183148
6.44957e-05
3.94578e-05
5.13413e-05
9.70456e-05
0.000130894
0.000189699
0.000597021
0.00199955
0.00370797
0.00453826
0.00472709
0.00473974
0.0047349
0.00457537
0.00427069
0.0038594
0.00320871
0.00259409
0.00224883
0.00215951
0.00209585
0.00195047
0.00198961
0.00216502
0.00157085
0.0022602
0.00238267
0.00253063
0.00295229
0.0035361
0.00423098
0.00464212
0.00479638
0.0046246
0.00454198
0.00442286
0.00426826
0.00409599
0.00420088
0.00419326
0.00417516
0.00416157
0.00418204
0.00429779
0.00436936
0.00445736
0.0046099
0.00466757
0.00490985
0.00432815
0.00423325
0.00378725
0.00374735
0.00350563
0.00360635
0.00355208
0.00334459
0.00332371
0.00328287
0.00332599
0.00348563
0.00351716
0.00358151
0.0036482
0.00366687
0.00363472
0.00348045
0.00351888
0.00310642
0.0030427
0.00276344
0.00246916
0.00223267
0.00198819
0.00172468
0.00145934
0.00121693
0.00103247
0.000883489
0.000678657
0.000559317
0.000489025
0.000437674
0.000396125
0.000303137
4.39488e-06
5.69694e-05
0.00279925
0.000925253
0.000348658
0.000153513
4.42998e-05
2.70409e-05
6.21531e-06
3.69656e-06
3.30076e-06
4.15841e-06
6.44074e-06
5.00609e-05
6.08351e-05
1.27349e-05
1.74892e-05
1.62407e-05
2.53999e-05
0.000120051
0.00025923
0.00100782
0.00173163
0.00291583
0.00462597
0.00475366
0.00476374
0.00475016
0.0046808
0.00438999
0.00403702
0.0034668
0.00298803
0.00257594
0.00237637
0.00222204
0.00214177
0.00221961
0.00244182
0.002747
0.00277708
0.0031655
0.00250512
0.00340375
0.00397196
0.00449424
0.00476897
0.00477264
0.00460326
0.0023956
0.00441944
0.00428404
0.00244021
0.00420892
0.00420816
0.00419561
0.00418483
0.00422049
0.00435825
0.00442844
0.00451917
0.00464219
0.00463872
0.00485876
0.00428486
0.00417827
0.0037368
0.00369269
0.00364185
0.00356326
0.00350413
0.00328198
0.0032491
0.00323243
0.00328565
0.0034432
0.00348601
0.00355788
0.0036217
0.00363772
0.0036126
0.00345046
0.00341548
0.00324865
0.00301175
0.00274016
0.00244781
0.00221598
0.0019664
0.00171053
0.00144893
0.0012069
0.00101974
0.000784932
0.000672348
0.000555532
0.000485708
0.000434632
0.000384798
0.000300938
3.2072e-06
7.3664e-05
0.000654065
0.000332598
0.0001343
6.07089e-05
3.60546e-05
1.2917e-05
4.56948e-06
3.92021e-06
3.92802e-06
5.5711e-06
4.54259e-06
2.88444e-05
3.50595e-05
3.39384e-05
4.72012e-05
6.61981e-05
9.21542e-05
0.000137157
0.000403671
0.00166671
0.00337376
0.00433751
0.00465896
0.00241385
0.00241645
0.00476242
0.00248956
0.00458511
0.00424782
0.00384833
0.00339277
0.00307219
0.00285754
0.00268708
0.00253183
0.00266676
0.00287642
0.00325803
0.00257358
0.00333691
0.00340426
0.00378031
0.00421663
0.00466837
0.00239568
0.00471134
0.00460147
0.00450323
0.00445281
0.00435054
0.00243036
0.00422954
0.00423328
0.00422898
0.00422338
0.00241174
0.00441865
0.004497
0.00458998
0.00465213
0.00495606
0.00468913
0.00353887
0.00376552
0.00367555
0.00362639
0.0035846
0.00351519
0.00345552
0.0032119
0.00317637
0.0031751
0.00323939
0.00330938
0.00345014
0.00352952
0.00359163
0.0034408
0.0035868
0.00357972
0.00335995
0.00319119
0.00298223
0.00271296
0.00242243
0.00224011
0.00194412
0.00169554
0.00143661
0.0011952
0.00100623
0.000841692
0.000665069
0.000551044
0.000481778
0.000431083
0.00037541
0.00029847
1.86393e-06
1.6115e-05
0.000142307
0.000101814
4.34112e-05
2.04771e-05
1.29962e-05
8.61153e-06
4.63588e-06
4.39221e-06
3.03035e-06
4.94669e-06
2.11363e-05
9.50724e-06
3.0581e-05
3.77301e-05
5.72163e-05
8.14567e-05
0.00010933
0.000182886
0.000585074
0.00157011
0.00390349
0.00293896
0.00473785
0.00476758
0.00478045
0.0047713
0.00475863
0.00465378
0.00257136
0.00417869
0.00390016
0.00364754
0.00348452
0.00237803
0.00313663
0.00315763
0.00340403
0.00356038
0.00355172
0.00346208
0.00361459
0.00402702
0.00437808
0.00469456
0.00481156
0.00477608
0.00461228
0.0045318
0.00448658
0.00440292
0.00241872
0.00432277
0.00432841
0.00432976
0.00433353
0.00439882
0.00448822
0.00457746
0.00461995
0.00448217
0.00447905
0.0044424
0.0038578
0.00369466
0.00360494
0.00354905
0.00352458
0.0032392
0.00310668
0.00313398
0.00309958
0.00311235
0.0030107
0.00324379
0.00333031
0.00349557
0.00355889
0.00340605
0.00355741
0.0035373
0.00329797
0.00313511
0.00261584
0.00268202
0.0023932
0.00216645
0.00192063
0.00167843
0.00142331
0.00118195
0.000991882
0.000822183
0.000657019
0.000545892
0.00047725
0.000427001
0.000367329
0.000295764
1.63814e-06
2.1058e-05
3.63858e-05
3.301e-05
1.5758e-05
8.38545e-06
6.91079e-06
4.8354e-06
4.63756e-06
6.17377e-06
4.39411e-06
8.40103e-06
2.48026e-05
5.56339e-05
1.67502e-05
1.7011e-05
2.71835e-05
0.000110942
8.54636e-05
0.000319122
0.000880853
0.00231895
0.00375462
0.00447972
0.00244131
0.00239452
0.00478434
0.00479207
0.00243138
0.00472458
0.00461864
0.00448122
0.00438432
0.00423892
0.00403579
0.00387945
0.00248718
0.00374487
0.00389065
0.00258169
0.00379569
0.0037942
0.00396992
0.00424227
0.00449525
0.00471617
0.00480312
0.00478315
0.00461853
0.00455112
0.00448986
0.00445258
0.0043991
0.00436835
0.00240512
0.00438643
0.00439693
0.00446825
0.00455274
0.00462117
0.00433127
0.00459673
0.0047532
0.0035148
0.00407893
0.003615
0.00352496
0.00346159
0.00329428
0.00337384
0.00318522
0.00304658
0.00302041
0.00304512
0.00311398
0.00317571
0.00326913
0.00345446
0.00334594
0.00352664
0.00330979
0.00323077
0.00323379
0.00307776
0.00258284
0.0026457
0.00236032
0.00213392
0.00189543
0.00165856
0.00140869
0.00116732
0.00097386
0.000803927
0.000648256
0.000540094
0.000472183
0.000422418
0.000360155
0.000292817
6.65548e-07
8.54247e-06
1.78209e-05
1.13183e-05
6.56529e-06
4.42428e-06
3.39854e-06
4.52235e-06
2.79726e-06
5.67047e-06
1.84559e-05
1.36132e-05
0.000143971
0.000138682
9.07945e-05
8.35582e-05
0.000102349
0.000156833
0.000226069
0.000614277
0.0013239
0.00266124
0.00381777
0.00448713
0.00474144
0.00241606
0.00479208
0.00479864
0.00478221
0.0047636
0.00473809
0.00468917
0.00469143
0.002358
0.00238572
0.0044452
0.00433727
0.00426658
0.00426468
0.00421088
0.00408268
0.00408611
0.00422709
0.00442515
0.00466614
0.00476988
0.00480698
0.00478261
0.00461637
0.00456573
0.00452355
0.00448579
0.00446555
0.00443019
0.00443853
0.00444921
0.00239699
0.00277956
0.00461505
0.00463781
0.00461275
0.00489335
0.0043917
0.00380119
0.00332893
0.00333307
0.00343561
0.00336583
0.0031349
0.00316678
0.00305629
0.00295388
0.00294201
0.00297326
0.00303681
0.00310495
0.00301324
0.00312278
0.00347479
0.00347459
0.00346817
0.00335611
0.003169
0.00301781
0.0028398
0.00256461
0.00232407
0.00209935
0.00186863
0.00163683
0.00139252
0.00115133
0.000955293
0.000786258
0.000638077
0.000533699
0.000466639
0.000417332
0.000353687
0.0002896
1.01646e-07
2.4335e-06
5.48892e-06
4.37204e-06
4.19085e-06
3.96156e-06
4.71095e-06
2.90561e-06
4.09502e-06
6.58928e-06
1.23075e-05
2.36901e-05
0.000253285
0.000634487
0.000160573
0.000114897
4.75378e-05
0.000186631
0.000491231
0.00112017
0.00201279
0.00302822
0.0040127
0.00451559
0.00471646
0.00479634
0.00479527
0.00480254
0.00480013
0.00477858
0.00477098
0.0047781
0.0047478
0.00472426
0.00468913
0.00236211
0.00464358
0.00235442
0.00458735
0.00242233
0.00444998
0.00440056
0.00449111
0.00465858
0.00474786
0.00480047
0.00480396
0.0047825
0.00239834
0.0045799
0.00455932
0.00453997
0.00452591
0.00449304
0.00239032
0.00451622
0.00293192
0.00460481
0.00463601
0.00461413
0.00480985
0.00409798
0.00410026
0.00399336
0.00352173
0.00340479
0.00333864
0.00326172
0.00313827
0.00288523
0.00293292
0.00286492
0.0028621
0.00289966
0.0029592
0.00303354
0.00312763
0.00325236
0.00342291
0.00313683
0.00333195
0.00326554
0.00310105
0.00295674
0.00277249
0.00251935
0.00228469
0.00206293
0.00183951
0.00156053
0.00137474
0.00113453
0.000936009
0.000768939
0.000627003
0.000526725
0.000460486
0.000411873
0.000345939
0.00028616
4.85504e-07
2.24228e-06
3.34899e-06
3.64276e-06
5.8262e-06
3.37746e-06
9.90121e-06
5.56491e-06
7.79029e-06
9.84688e-06
1.56399e-05
8.04239e-05
0.000261059
0.00159688
0.000250023
0.000137361
0.000137487
0.00020331
0.000895441
0.00131024
0.00251714
0.00355575
0.00305235
0.00456926
0.0047289
0.0024228
0.00240959
0.00480319
0.00477632
0.00241058
0.00477241
0.00476946
0.00476173
0.00476079
0.00475128
0.00469187
0.00469049
0.0046741
0.00238631
0.00471594
0.00467679
0.00466475
0.00471442
0.00477058
0.00479388
0.00480686
0.00482705
0.00479242
0.00471158
0.00460309
0.00240213
0.0024057
0.00240967
0.00457726
0.00458048
0.00459162
0.00460961
0.00463358
0.00461761
0.00474269
0.00464518
0.00347529
0.00369182
0.00352626
0.00339803
0.00327671
0.00299817
0.00288967
0.00296952
0.00289919
0.00281744
0.00277357
0.0027788
0.00282255
0.00288359
0.00295941
0.00304796
0.00316181
0.00329006
0.00326845
0.00324676
0.00318065
0.00303104
0.00289306
0.00270774
0.00247066
0.00224267
0.00202441
0.00180938
0.00158025
0.00135508
0.00103678
0.000915949
0.000751809
0.000615328
0.000519131
0.00045379
0.000405993
0.000339368
0.000282463
4.94108e-07
2.24743e-06
3.93908e-06
7.67671e-06
1.55894e-05
6.14777e-06
2.69883e-05
1.08236e-05
4.88109e-05
6.51943e-05
8.10141e-05
0.000121123
0.000292507
0.00140507
0.000268983
0.000154768
0.00016069
0.00024685
0.000845998
0.00198478
0.00295189
0.00397501
0.00290533
0.00461906
0.00474248
0.0025044
0.0048135
0.00481454
0.00239578
0.00473825
0.00239398
0.00472105
0.00467819
0.00467661
0.00471696
0.00471512
0.00467497
0.00466935
0.00472988
0.00476712
0.00241033
0.00245137
0.00478504
0.00481006
0.0024169
0.00480163
0.00482603
0.00242009
0.00480329
0.00464442
0.0025362
0.00464835
0.00464121
0.0046247
0.00324054
0.00377113
0.00463353
0.00440386
0.00468034
0.00471187
0.0042445
0.00330754
0.00329819
0.00340252
0.00313656
0.0031448
0.00286966
0.00286709
0.00281556
0.00276316
0.00270975
0.00268177
0.00269449
0.00274228
0.00280672
0.0028847
0.00296976
0.00307286
0.0030212
0.00317635
0.00316031
0.00293371
0.00295962
0.00282656
0.00264266
0.00242041
0.00219852
0.00198425
0.00177855
0.00154415
0.00125689
0.00109412
0.000895187
0.000734781
0.000603043
0.000511026
0.000446609
0.00039788
0.000332934
0.000278604
7.17776e-06
1.95062e-06
9.022e-06
8.13753e-06
2.34465e-05
6.20236e-05
6.71871e-05
2.88077e-05
4.23911e-05
0.00014082
0.000171643
0.000120313
0.000373878
0.00109577
0.000177689
0.000188568
0.000219261
0.000298028
0.00100596
0.00149701
0.00348423
0.00313393
0.00466704
0.00469461
0.00475536
0.00479478
0.0048082
0.004811
0.00480697
0.00478717
0.00477027
0.00472643
0.00467093
0.00240134
0.00466609
0.00466433
0.0046571
0.00465186
0.00239503
0.00477094
0.0047824
0.00480745
0.00481255
0.0047874
0.00241373
0.00480208
0.00479793
0.00478399
0.00483743
0.00483931
0.00485386
0.00485149
0.00482144
0.00384495
0.00386007
0.00462972
0.00460781
0.00444656
0.00472669
0.00425458
0.00361537
0.00352314
0.00313271
0.00326869
0.00313025
0.00291019
0.00281303
0.00270919
0.0026811
0.0026412
0.00260761
0.00259181
0.00261073
0.00266196
0.00272827
0.00280878
0.00289034
0.00298289
0.00311089
0.00308705
0.00307622
0.00301913
0.00288825
0.002544
0.00253927
0.00242454
0.00220158
0.00194244
0.00174577
0.00150728
0.00129944
0.00106937
0.000873801
0.000717969
0.000590313
0.000502427
0.000438902
0.000389666
0.000326564
0.000274735
5.61823e-06
4.55042e-05
3.64808e-05
2.92832e-05
0.00117263
0.000163193
5.7175e-05
0.000214699
0.000235565
0.00036118
0.000234714
0.000197962
0.000424031
0.000733284
0.000293451
0.000250866
0.000341645
0.000584382
0.00145474
0.00176798
0.00388974
0.0044092
0.00298498
0.00464753
0.00476881
0.00477165
0.00250276
0.00481556
0.00480452
0.00482
0.00478875
0.00478071
0.00239704
0.00471696
0.00239682
0.00464416
0.00463379
0.0024139
0.00239771
0.00477511
0.00478738
0.00478923
0.0047888
0.00478027
0.00481904
0.00479714
0.00478085
0.00475248
0.00472684
0.00380473
0.00456719
0.00481363
0.004783
0.00475521
0.00470263
0.00443333
0.00472112
0.0045643
0.00428483
0.00326666
0.00377555
0.00332721
0.00323297
0.0031261
0.00291875
0.00273682
0.00263871
0.00256597
0.00244417
0.00252967
0.00246666
0.00246041
0.00248731
0.002581
0.0026508
0.00273011
0.00281275
0.00289422
0.00285645
0.00299688
0.00298992
0.00293592
0.00281522
0.00268515
0.00246988
0.00231046
0.00210511
0.00190151
0.00171127
0.00146923
0.0011868
0.00104433
0.000852572
0.000700983
0.000578449
0.000493171
0.000430817
0.000381224
0.000320243
0.000270575
0.000162207
0.00020314
0.000119671
8.62391e-05
0.00141461
0.00016441
0.000334492
0.000647353
0.000524208
0.000586673
0.000612533
0.000574482
0.000675627
0.000736134
0.000463401
0.000244207
0.000526917
0.00086808
0.00167193
0.00294788
0.00310105
0.00332795
0.00453852
0.00303364
0.00281866
0.00254046
0.00254053
0.00476481
0.00475702
0.00480477
0.00242172
0.00241715
0.00481039
0.00480719
0.00477752
0.00240478
0.00240616
0.00465069
0.00472078
0.00241205
0.00478547
0.00477359
0.00240865
0.0048128
0.00248652
0.00476337
0.00308731
0.00462937
0.00452901
0.00415421
0.00442605
0.00452887
0.00456382
0.00458205
0.00456713
0.00456319
0.00441743
0.00369221
0.00325315
0.00371923
0.00304235
0.00300288
0.00304065
0.00290917
0.00269542
0.0025429
0.00245342
0.00240893
0.00236801
0.0023572
0.00234935
0.00235365
0.00238424
0.00244434
0.00254965
0.00263601
0.0027191
0.00250583
0.00288286
0.00268608
0.00288754
0.00284089
0.0027259
0.00259546
0.00238743
0.00229951
0.0020437
0.00185094
0.00167001
0.00136184
0.0012158
0.0010139
0.000827883
0.000680418
0.000563938
0.000480694
0.000420534
0.000370937
0.000312614
0.00026539
0.000251307
0.000204824
0.000233744
0.000271443
0.000464276
0.000332496
0.000725204
0.00159399
0.00116816
0.0010884
0.00119912
0.00110391
0.00115724
0.00097898
0.000647393
0.000673443
0.000907744
0.00121824
0.00159439
0.00325432
0.00393813
0.0042386
0.00448071
0.00463713
0.00284893
0.00279058
0.00278978
0.00471298
0.00277843
0.00473776
0.00473797
0.00477223
0.00477393
0.00479498
0.00479569
0.0048049
0.00480653
0.00481023
0.00241545
0.00478919
0.00241693
0.0023951
0.00240904
0.00479662
0.00476207
0.00467385
0.00423637
0.00403313
0.00406445
0.00416454
0.00423947
0.00391678
0.00386249
0.00385387
0.0040253
0.00393151
0.00334872
0.00322583
0.00330714
0.00300982
0.00293691
0.00278839
0.00277056
0.00263752
0.00247352
0.00234131
0.0022339
0.00220738
0.0022087
0.00222435
0.002229
0.00223882
0.00227381
0.00233308
0.00240593
0.00252745
0.00260469
0.00266822
0.00274577
0.00276406
0.00277226
0.00273055
0.00262386
0.00245231
0.00229562
0.00214722
0.00197096
0.00178836
0.0016124
0.00136998
0.0011593
0.000971913
0.000798366
0.000656003
0.000546661
0.000465533
0.000407918
0.000360084
0.00030356
0.000258872
0.000759118
7.34709e-05
0.00031517
0.00033185
0.000336309
0.000359135
0.000933681
0.00149711
0.00141947
0.00173849
0.00183325
0.00215088
0.00173314
0.00129679
0.000989035
0.00117974
0.0016038
0.00227876
0.0020753
0.00395935
0.00276671
0.00424573
0.00438979
0.00460683
0.00301455
0.00463702
0.00461358
0.00459412
0.00296248
0.00459153
0.00279008
0.00270342
0.00471183
0.00476426
0.00252205
0.00473141
0.00478283
0.00481496
0.00481608
0.00242629
0.00483309
0.00482247
0.00479281
0.00250433
0.00467114
0.00417873
0.00396559
0.00387132
0.0036828
0.00359035
0.00359937
0.00330853
0.00357499
0.00326694
0.00346026
0.00312525
0.00308439
0.00303486
0.00307504
0.00294387
0.00281087
0.00264251
0.00249757
0.00240075
0.00234608
0.00213213
0.00207402
0.00205993
0.00216453
0.00219029
0.00211265
0.00212729
0.00216354
0.00222541
0.00229611
0.00237829
0.00249058
0.00254809
0.00261286
0.00263828
0.0026497
0.00261872
0.0025261
0.00234604
0.00220251
0.00206135
0.00189783
0.00172355
0.00155012
0.0012523
0.00110778
0.000929933
0.000768275
0.000630872
0.00052877
0.000449686
0.000393489
0.000349263
0.000294547
0.00025188
0.000866742
0.000258799
0.000275213
0.000304927
0.000275382
0.000401024
0.000856395
0.00123321
0.00146656
0.00210734
0.00308858
0.00314821
0.00252995
0.00225087
0.00159622
0.00211242
0.00254235
0.00171721
0.00346997
0.00386321
0.00412468
0.00284279
0.00288205
0.0031563
0.00313765
0.00456329
0.00454063
0.0044767
0.00439872
0.00442882
0.00302788
0.00442773
0.00448611
0.00285105
0.00456077
0.00460508
0.00279462
0.00477866
0.00478229
0.00481294
0.00482044
0.00250507
0.00474618
0.00465268
0.00336908
0.00389763
0.00345993
0.00343327
0.00336317
0.00334494
0.00336981
0.00321314
0.00317942
0.00330271
0.00323606
0.0031695
0.00309685
0.00296543
0.00283261
0.00268287
0.00252115
0.00226984
0.00226576
0.00226575
0.00205854
0.00197361
0.00193251
0.00192941
0.00194634
0.00197816
0.00205234
0.00202241
0.00206074
0.00212072
0.00218929
0.002274
0.00233759
0.00239321
0.00248761
0.00249457
0.00253057
0.00250749
0.00236964
0.00224704
0.00211037
0.00197529
0.00182803
0.00165743
0.00148227
0.0012545
0.00105702
0.000888554
0.000735135
0.000606106
0.000510385
0.000433196
0.000379312
0.000338137
0.000285386
0.00024454
0.00086906
0.000624632
0.000472071
0.000389532
0.000449195
0.000691163
0.000909477
0.00107354
0.0014332
0.00224152
0.00317935
0.00229306
0.00331302
0.00199115
0.00288188
0.00303681
0.00334103
0.0036016
0.00377092
0.00386611
0.00400528
0.00218982
0.00410321
0.00424496
0.00440675
0.00445106
0.00448406
0.00302752
0.00408858
0.00308005
0.00400763
0.00400632
0.00318844
0.00434181
0.00316806
0.00456436
0.00465111
0.00468146
0.00473384
0.00478143
0.00474817
0.00469454
0.004425
0.00328726
0.00379418
0.00353669
0.00322343
0.00304351
0.00297805
0.00297523
0.00290898
0.00291798
0.00291854
0.00304714
0.00283587
0.00290799
0.00282037
0.00259446
0.00254326
0.00240972
0.00227401
0.00214085
0.00204242
0.00197558
0.0018969
0.00182952
0.0018012
0.00180625
0.00182681
0.00185992
0.00189261
0.00191721
0.0019569
0.00202007
0.00208783
0.00217032
0.0023149
0.00227658
0.00232523
0.00235597
0.00237048
0.00235035
0.00234942
0.0021439
0.00202209
0.00188976
0.00175506
0.0015922
0.00141243
0.00119127
0.00100606
0.000850908
0.000701878
0.000580683
0.000491312
0.000416095
0.000365686
0.000325854
0.000275775
0.000236921
0.000873046
0.000813379
0.000677194
0.000611457
0.00072187
0.000885203
0.00100442
0.00111821
0.00134669
0.00204297
0.00318053
0.00374369
0.00405419
0.00397073
0.00380192
0.00409849
0.00418933
0.0026938
0.00407723
0.00394226
0.00386677
0.00375274
0.00381581
0.00399931
0.00414487
0.00286769
0.00414893
0.00398767
0.00379394
0.00371272
0.00366735
0.00370574
0.00378607
0.00391599
0.00411019
0.00452703
0.00463012
0.00314435
0.00464752
0.00460078
0.00455087
0.00433123
0.00331651
0.00367856
0.00339836
0.00302599
0.00254759
0.00267332
0.00262815
0.00263749
0.00267063
0.00266759
0.00267624
0.00269214
0.00264381
0.00256928
0.00248008
0.00238722
0.00228886
0.00215459
0.00204212
0.00194675
0.00187178
0.00181349
0.00177666
0.00169642
0.00166886
0.00168075
0.00170876
0.00174909
0.00178627
0.00181651
0.00185923
0.0019193
0.00198858
0.00206853
0.00212406
0.00216872
0.00221162
0.00223411
0.00225212
0.00223866
0.00215207
0.00204617
0.00193329
0.00181177
0.00167604
0.00149225
0.00134814
0.00113253
0.000954888
0.000807942
0.000666917
0.00055503
0.000468446
0.000398793
0.00035187
0.000313545
0.000265678
0.000228671
0.000893627
0.000918336
0.000800313
0.000754212
0.000788977
0.000782029
0.000812096
0.000985435
0.0011697
0.00160325
0.00264029
0.00384498
0.00414983
0.00222528
0.00420036
0.00316553
0.00316417
0.00414326
0.00255832
0.00384608
0.00198694
0.00344171
0.00348525
0.00373799
0.00205069
0.00210592
0.00389823
0.00291828
0.00347797
0.00332862
0.00331595
0.00335545
0.00324609
0.00357022
0.00382004
0.00406698
0.00348628
0.00458001
0.00453667
0.00334561
0.00426192
0.00340559
0.00359279
0.00304256
0.00283569
0.00260868
0.00242314
0.00232979
0.00230086
0.00231544
0.00238464
0.00234335
0.00235445
0.00232874
0.00232136
0.00228074
0.00219294
0.00211448
0.00210411
0.00194977
0.0018617
0.00178143
0.00171814
0.00166604
0.00161101
0.00156073
0.00154179
0.00156035
0.00159291
0.0016381
0.00164691
0.00171004
0.00175861
0.00182467
0.00189163
0.00196841
0.00202155
0.00206581
0.00210527
0.00212537
0.00224998
0.00224221
0.00204603
0.00195213
0.00184917
0.00173098
0.0016017
0.00145023
0.00127731
0.00107624
0.000905036
0.00076603
0.000632876
0.000529595
0.000446266
0.000382885
0.000337653
0.000300054
0.000255456
0.000221092
0.000922799
0.000972501
0.000888043
0.000791391
0.000685065
0.000531954
0.000502385
0.000643073
0.000871141
0.00112203
0.00179273
0.00195425
0.00373974
0.00402237
0.00410062
0.0042025
0.00410644
0.0038324
0.00370868
0.00339378
0.00313645
0.00298348
0.00225898
0.0033286
0.00353542
0.00288584
0.00365151
0.00323926
0.00322702
0.00301302
0.00299057
0.00316751
0.00327558
0.00340643
0.00354373
0.00370311
0.00382643
0.00439101
0.00427578
0.00406831
0.00374017
0.003007
0.00297538
0.00274229
0.00242546
0.00225805
0.00212516
0.00206418
0.00204897
0.00206393
0.00216591
0.00205882
0.0020711
0.00208229
0.00206035
0.00201943
0.00196462
0.00190565
0.00184975
0.0017696
0.00169798
0.00162306
0.00156492
0.00151723
0.00146064
0.00142077
0.00141039
0.00143369
0.00147268
0.00152329
0.0015712
0.00160849
0.00165814
0.00172503
0.00179788
0.00187099
0.00192249
0.00196946
0.00200583
0.00202247
0.00203804
0.00213388
0.00195013
0.00185978
0.00176782
0.00164744
0.001525
0.00137677
0.00120671
0.00101946
0.000858693
0.000724794
0.000601373
0.000504042
0.000424286
0.000366911
0.000323592
0.000286682
0.000245042
0.000213598
0.000955489
0.000977353
0.000839754
0.000673389
0.000493108
0.000299523
0.000243625
0.000338243
0.000547528
0.000757234
0.00108554
0.00187655
0.0028384
0.00335481
0.00362849
0.00367631
0.0020762
0.00212197
0.00311988
0.00202985
0.0025173
0.002456
0.0026452
0.00286489
0.0030252
0.00304749
0.00286758
0.00311335
0.00266752
0.00269135
0.00253911
0.00280503
0.00267858
0.00323641
0.00355788
0.00366902
0.00367673
0.00348692
0.00344181
0.00321135
0.00290829
0.0027549
0.00261688
0.00232888
0.00210137
0.00194879
0.00180077
0.00182145
0.00177873
0.00185152
0.00186147
0.00184295
0.00185521
0.0018659
0.00186438
0.00181641
0.00177135
0.00171944
0.00166349
0.00160317
0.00153485
0.00146424
0.0014087
0.00130226
0.00131669
0.00128632
0.00128232
0.00131332
0.00135818
0.00140944
0.00145578
0.00150309
0.00155794
0.00162924
0.00169948
0.00177691
0.00182967
0.00187162
0.00190763
0.00192424
0.00193683
0.00192756
0.00191066
0.00177406
0.00168294
0.00156896
0.0014433
0.00130237
0.00114152
0.000962211
0.000812637
0.000683649
0.000570198
0.000478485
0.000404504
0.000350624
0.000309547
0.000273521
0.000235561
0.000205759
0.000985226
0.00089015
0.000644527
0.000468716
0.000311465
0.000172419
0.000126273
0.000168306
0.000326939
0.000502627
0.000676724
0.00107189
0.00180137
0.00249017
0.00283172
0.00216944
0.00269942
0.00245025
0.00202125
0.00215913
0.00193609
0.00192863
0.00208424
0.0018035
0.00249195
0.00245875
0.00246345
0.00274146
0.00228967
0.0023118
0.00208586
0.00219707
0.00246312
0.00285161
0.00337298
0.00329306
0.00367284
0.00347902
0.00325271
0.0027392
0.00262829
0.00235081
0.00219387
0.00189862
0.00169632
0.00165828
0.00159498
0.00157552
0.00159622
0.00157785
0.00163407
0.00163642
0.00165121
0.00166597
0.0016556
0.00162597
0.00158417
0.00153572
0.00148239
0.0014264
0.00137111
0.00130922
0.00125419
0.00122133
0.00117546
0.00115493
0.00115925
0.00119309
0.00124211
0.00129987
0.00135101
0.00139817
0.00145461
0.00153087
0.00160638
0.00167761
0.00173547
0.00178153
0.00181422
0.00182786
0.00183526
0.00182303
0.00176522
0.00168362
0.00160105
0.00148653
0.00136576
0.0012258
0.00107751
0.000908513
0.000767365
0.000645695
0.000539732
0.000452886
0.00038538
0.000334666
0.000295262
0.000260588
0.000226515
0.000197547
0.000995014
0.000712941
0.000435903
0.000319115
0.000187476
8.8428e-05
6.67785e-05
0.000102101
0.000197432
0.000344926
0.000460854
0.000633032
0.0010381
0.00150415
0.00191956
0.00197765
0.00183688
0.00171961
0.00174276
0.0014492
0.00132279
0.00135007
0.00145294
0.0015528
0.00161986
0.00167971
0.00182882
0.00235688
0.00204662
0.00190992
0.00143535
0.00161865
0.00190963
0.00241003
0.00296971
0.00291788
0.00334352
0.00294751
0.00287248
0.00251606
0.00222768
0.00200396
0.0018145
0.00163603
0.00148157
0.00136501
0.00131942
0.00122229
0.00135909
0.00141287
0.00140429
0.00141925
0.00144212
0.0014613
0.00145403
0.00143357
0.00139604
0.00135321
0.00122784
0.00125462
0.00121116
0.0010761
0.00110857
0.00107654
0.00104066
0.00102876
0.0010408
0.00108061
0.001133
0.00119239
0.00124546
0.00129548
0.00135776
0.00143197
0.0015082
0.00158444
0.00163984
0.0016852
0.00172095
0.00173593
0.001743
0.00172733
0.00166941
0.00159536
0.00151374
0.00140242
0.00128843
0.00115327
0.00101117
0.000856768
0.000722261
0.000609288
0.000509537
0.000428872
0.000366218
0.000318747
0.000281142
0.00024874
0.00021723
0.000189535
0.000944749
0.000453648
0.000265406
0.00016151
8.95935e-05
3.56665e-05
3.21029e-05
6.56056e-05
0.000134552
0.000243327
0.000337117
0.000420811
0.000601597
0.000860839
0.00108897
0.00111369
0.00105441
0.0010051
0.000999124
0.000930432
0.000927588
0.000985702
0.00106268
0.00114096
0.00121334
0.00137389
0.00132431
0.00157186
0.00149211
0.00119548
0.00114489
0.00119761
0.00143633