/*--------------------------------*- C++ -*----------------------------------*\
  =========                 |
  \\      /  F ield         | OpenFOAM: The Open Source CFD Toolbox
   \\    /   O peration     | Website:  https://openfoam.org
    \\  /    A nd           | Version:  6
     \\/     M anipulation  |
\*---------------------------------------------------------------------------*/
FoamFile
{
    version     2.0;
    format      ascii;
    class       volScalarField;
    location    "0.1";
    object      C2H3;
}
// * * * * * * * * * * * * * * * * * * * * * * * * * * * * * * * * * * * * * //

dimensions      [0 0 0 0 0 0 0];

internalField   nonuniform List<scalar> 
8000
(
4.76318e-11
7.82654e-07
1.46758e-05
6.62934e-05
0.000101635
7.05263e-05
3.07557e-05
8.78122e-06
1.45098e-06
8.2324e-08
1.80039e-09
8.94984e-11
2.39377e-10
2.03922e-07
6.70273e-08
1.98743e-08
1.23117e-06
4.8513e-05
1.10756e-05
1.69312e-06
1.99459e-06
6.49058e-06
3.66628e-05
0.000132399
0.000171274
0.000149055
0.000138621
0.000137551
0.000136957
0.000103215
3.64187e-05
0.000134743
0.000105971
7.24402e-05
5.08149e-05
3.89966e-05
3.46713e-05
3.81021e-05
5.6574e-05
7.96556e-05
6.31156e-05
5.54368e-05
6.14865e-05
8.01001e-05
0.000107791
0.000137732
0.000145356
0.000127289
8.99364e-05
0.000103283
1.00996e-05
4.47353e-05
3.97862e-05
3.71468e-05
3.33752e-05
2.91082e-05
2.5763e-05
2.43343e-05
2.52548e-05
2.86973e-05
3.32293e-05
4.71822e-05
5.67602e-05
9.77665e-05
0.000104276
9.33272e-05
0.000115477
0.000101632
0.000105885
0.000107731
8.3651e-05
0.000111913
0.000111819
0.000128129
0.000127927
0.000110092
0.000110112
0.000109356
0.000107578
0.000107071
0.000109592
0.000110236
0.000112223
0.000128438
0.000123972
0.000115613
0.000105378
9.67373e-05
7.8068e-05
7.70261e-05
6.59335e-05
5.57749e-05
4.81756e-05
4.28474e-05
3.16814e-05
2.58913e-05
2.25321e-05
2.01189e-05
1.94135e-05
1.38358e-05
2.14798e-11
8.6154e-07
1.67185e-05
7.10732e-05
0.000113148
7.08372e-05
2.88023e-05
8.26427e-06
1.25152e-06
5.80122e-08
1.00734e-09
1.10019e-10
7.32868e-10
4.44429e-06
1.80539e-06
1.24543e-07
2.4868e-07
4.82612e-06
5.29083e-06
6.37316e-06
4.0488e-06
9.08311e-06
4.33803e-05
0.000138137
0.000169866
0.000146677
0.00013583
0.000137257
0.000139042
0.000134841
0.000133279
0.000130199
0.000103872
7.60776e-05
5.9112e-05
4.87066e-05
4.36731e-05
4.6165e-05
6.59409e-05
6.01931e-05
7.83758e-05
6.21498e-05
6.66756e-05
8.48812e-05
0.000111278
0.00013904
0.000144224
0.000126436
9.34027e-05
6.57421e-05
5.54081e-05
4.54316e-05
3.88094e-05
3.61027e-05
3.26769e-05
2.88261e-05
2.58862e-05
2.48326e-05
2.6014e-05
2.96526e-05
3.48555e-05
4.86973e-05
5.79647e-05
0.000100785
9.88665e-05
9.37695e-05
0.000115811
0.00010179
0.000105955
0.000107885
0.000109281
0.000111905
0.000111761
0.000127953
0.000127786
0.000110068
0.000110138
0.000109378
0.000107668
0.000106985
0.000109618
0.000110204
0.000112208
0.00012832
0.000123941
0.000115464
0.000105218
9.66062e-05
8.8769e-05
7.68887e-05
6.58459e-05
5.56875e-05
4.81083e-05
4.28271e-05
3.16259e-05
2.58545e-05
2.25046e-05
2.00931e-05
1.94279e-05
1.38158e-05
1.77924e-11
1.29971e-06
1.31069e-05
4.99252e-05
7.09968e-05
4.55342e-05
1.87349e-05
7.4613e-06
3.32486e-06
3.26276e-08
5.17057e-08
1.05291e-10
1.66549e-09
8.38757e-06
1.73111e-05
4.3475e-07
6.27489e-08
2.06864e-07
9.63035e-06
7.27447e-05
1.14179e-05
1.60822e-05
5.87257e-05
0.000149127
0.000166681
0.000139454
0.00013199
0.000136495
0.000142077
0.000139046
0.000139058
0.000129754
0.000105341
8.49673e-05
7.77538e-05
7.29758e-05
6.45396e-05
6.42263e-05
6.99742e-05
7.84009e-05
6.98245e-05
6.80867e-05
7.57542e-05
9.39945e-05
0.000117978
0.000141211
0.000141192
0.000124427
9.27915e-05
6.87445e-05
4.85991e-05
4.14754e-05
3.50381e-05
3.367e-05
3.14108e-05
2.84186e-05
2.62131e-05
2.58583e-05
2.75848e-05
3.08054e-05
3.82591e-05
5.1861e-05
6.04899e-05
0.00010105
0.000100075
9.46948e-05
9.94506e-05
0.000102151
0.000106075
0.000108167
0.000109809
0.000111864
9.70829e-05
0.000127559
0.000127474
9.21992e-05
0.000110191
0.00010942
0.000107848
8.07975e-05
0.000109679
0.000110132
0.000112179
0.000128068
9.45073e-05
0.000115132
0.000104881
9.63239e-05
8.77896e-05
7.66139e-05
6.5655e-05
5.54967e-05
4.2406e-05
3.83593e-05
3.15032e-05
2.57745e-05
2.24442e-05
2.00365e-05
2.09355e-05
1.37719e-05
3.81461e-11
2.50457e-06
4.28307e-05
6.23895e-05
4.46545e-05
2.56582e-05
1.00309e-05
2.49659e-06
1.98637e-07
3.53429e-09
5.77401e-11
2.18632e-11
3.63058e-10
4.84437e-06
5.40743e-05
8.2925e-07
3.19414e-08
5.73123e-08
3.05723e-06
8.91209e-06
6.92533e-06
2.0454e-05
7.7271e-05
0.000160842
0.000162343
1.84579e-05
0.000129145
0.000135932
0.000142646
0.000145051
0.000145165
0.000132528
0.000110546
9.60055e-05
0.000101437
6.23901e-05
9.69946e-05
5.83188e-05
8.7275e-05
8.46255e-05
7.98182e-05
8.18333e-05
8.95947e-05
0.000106098
0.000128523
0.000143057
0.000138345
0.000117056
8.66286e-05
6.1996e-05
4.47051e-05
3.62478e-05
3.73141e-06
3.10135e-05
3.03319e-05
2.8286e-05
2.68288e-05
2.73571e-05
3.01969e-05
3.30478e-05
4.29654e-05
5.05773e-05
6.40496e-05
0.000102422
0.000101262
9.60447e-05
0.00010035
0.000102743
0.000106176
0.000108452
9.11215e-05
0.00012781
0.00012786
0.000126916
0.000127001
0.000110405
0.000110258
0.000109472
0.00010809
0.000107882
0.000109774
0.000110015
0.000112135
0.00012771
0.000122754
0.000114612
0.000104376
9.59031e-05
8.69615e-05
7.62177e-05
6.5368e-05
5.52107e-05
4.74263e-05
4.14262e-05
3.13113e-05
2.56545e-05
2.23534e-05
1.99506e-05
1.86057e-05
1.37026e-05
2.41227e-11
3.27052e-06
2.41924e-05
8.87217e-05
3.35951e-05
1.47054e-05
4.18314e-06
5.17333e-07
1.70287e-08
1.64807e-10
1.4758e-09
2.80401e-11
3.62957e-11
8.28482e-07
5.9077e-06
1.14027e-07
1.39652e-08
3.32028e-08
7.09523e-07
2.26818e-06
6.41822e-06
3.13891e-05
0.000107481
0.000170826
0.000161418
0.000134282
0.000131121
0.000137398
0.000141812
0.000149115
0.000150154
0.000137517
0.000118077
0.000104717
0.000101309
9.86344e-05
9.20621e-05
9.27618e-05
9.85178e-05
5.12998e-05
9.89066e-05
0.000101766
0.000107215
0.000120885
0.000137124
0.000140859
0.000126786
0.000103704
7.82016e-05
5.69718e-05
4.16142e-05
3.67627e-05
3.47263e-05
3.11908e-05
3.02475e-05
2.87384e-05
2.78311e-05
2.94353e-05
3.39918e-05
3.91884e-05
4.86497e-05
5.55813e-05
6.79286e-05
0.000100067
9.88761e-05
0.000112889
0.000101442
0.000103575
8.0184e-05
0.00010871
0.000110289
0.000126897
0.000126627
0.00012606
0.000126367
0.000110527
0.000110296
0.00010952
0.00010833
0.000108486
0.000109869
8.94036e-05
0.000112065
9.8252e-05
0.000121762
0.00011393
0.000103705
9.53476e-05
8.60704e-05
7.57083e-05
6.49884e-05
5.48349e-05
4.68748e-05
4.03268e-05
3.10677e-05
2.54973e-05
2.22332e-05
1.98373e-05
1.79393e-05
1.36172e-05
6.21321e-12
2.37243e-06
0.000128939
4.82372e-05
1.6873e-05
6.51219e-06
1.03635e-06
1.04741e-06
7.48277e-10
7.27659e-12
1.35863e-12
2.37992e-12
1.94921e-11
6.56163e-08
1.59791e-07
2.37387e-08
4.73669e-08
5.40304e-08
4.52898e-07
1.80873e-06
1.10238e-05
5.49251e-05
6.59578e-05
8.20503e-05
0.000154318
0.000134843
0.000130817
0.000136176
0.000142434
0.000149073
0.000151953
0.000142566
0.000127305
0.000114223
0.000106419
0.0001001
9.65357e-05
9.90137e-05
0.000106459
0.000113819
0.000114047
0.00012485
8.21008e-05
0.000133295
0.000142887
0.00013723
0.000115784
9.29571e-05
7.144e-05
8.13682e-06
4.02564e-05
3.71718e-05
3.67466e-06
3.11355e-05
3.0751e-05
2.98482e-05
2.98744e-05
3.44125e-05
3.79564e-05
4.66393e-05
5.47855e-05
6.10411e-05
7.17915e-05
0.000104137
0.000101492
0.000114704
0.00010262
0.000104518
0.000106945
0.000108885
0.000110352
0.0001257
0.000125252
0.00012499
0.000125556
0.000110487
0.000110247
0.000109546
0.000108567
0.000108812
0.000109946
9.06709e-05
0.000128278
0.000125979
0.000120825
0.000113096
0.000102868
9.46592e-05
8.51551e-05
7.50928e-05
6.45195e-05
5.43752e-05
4.62937e-05
3.57935e-05
3.07796e-05
2.53276e-05
2.2083e-05
1.96991e-05
1.74104e-05
1.35188e-05
5.38482e-13
7.74528e-07
3.41957e-05
1.03589e-05
5.4037e-06
1.71481e-06
1.52582e-06
2.79855e-07
7.38281e-09
4.31141e-12
1.86219e-12
1.13139e-11
1.42293e-09
6.66625e-09
1.22535e-08
9.33483e-09
2.86686e-08
1.32504e-07
6.02332e-07
2.93462e-06
1.95567e-05
9.16249e-05
0.000165698
0.000172743
0.000149102
2.57655e-05
2.74165e-05
0.000132694
3.69538e-05
0.000147534
0.000149909
0.000145767
0.000135972
0.000125673
0.000117905
0.000111653
0.000108013
0.000110533
0.000116785
0.000127026
7.92122e-05
0.000129699
0.000132326
0.000140797
0.000143492
0.000126539
2.23375e-05
8.47783e-05
6.86134e-05
5.22473e-05
4.29081e-05
3.53647e-05
4.22153e-06
3.20978e-05
3.25079e-05
3.33004e-05
3.48065e-05
7.4528e-06
4.57376e-05
5.5185e-05
6.11093e-05
6.65439e-05
0.000105935
0.000106772
5.51149e-05
9.96701e-05
0.000103659
0.000105415
0.000107284
0.000108903
0.000110151
0.000124229
0.000123679
0.000123673
0.000124584
0.000125272
0.000110115
0.000109541
0.000108772
8.85909e-05
0.000109987
0.000110406
0.000127317
0.000124622
0.000119889
0.000112118
0.000101871
7.87035e-05
8.41955e-05
7.44311e-05
6.39644e-05
5.38383e-05
4.5675e-05
3.83952e-05
3.04471e-05
2.51264e-05
2.19051e-05
1.95382e-05
1.69729e-05
1.34086e-05
2.27623e-11
3.46417e-07
5.39201e-06
3.41312e-06
8.61197e-07
1.07053e-07
3.13986e-07
6.02028e-10
1.26969e-11
3.64464e-12
3.1058e-11
1.29638e-09
6.30014e-09
5.79657e-08
8.68865e-09
1.48078e-08
8.5018e-08
4.04514e-07
1.4307e-06
6.07435e-06
3.08098e-05
6.62754e-05
0.000180233
7.46284e-05
0.000145239
0.000126205
0.00012691
0.000128961
0.000133303
0.000141761
5.204e-05
0.000145522
0.000140648
0.000135024
0.000130313
7.12861e-05
0.00012252
0.000123088
0.000127224
0.000131208
0.000132203
0.000132768
0.000137275
0.000143311
0.000141362
0.000122816
0.000101143
8.44363e-05
6.80992e-05
5.41589e-05
4.60931e-05
3.8142e-05
5.65475e-06
3.45275e-05
3.56184e-05
3.71518e-05
3.94232e-05
4.375e-05
5.49061e-05
5.90388e-05
6.17183e-05
6.11837e-05
6.15752e-05
0.000104068
9.76045e-05
0.000101158
0.000104466
0.00010601
0.000107349
9.30695e-05
9.58312e-05
0.00012242
0.000121875
0.000122124
9.55362e-05
0.000124053
0.000125186
0.000109481
0.000108898
8.99234e-05
0.000109981
0.000110551
0.000126159
0.000123229
8.92697e-05
0.000110998
0.000100721
9.25646e-05
8.31707e-05
7.36744e-05
6.33654e-05
5.32311e-05
4.50151e-05
3.75059e-05
3.00794e-05
2.48954e-05
2.17003e-05
1.93531e-05
1.65973e-05
1.3288e-05
2.46909e-14
1.20511e-08
1.43183e-06
1.30054e-06
4.04591e-08
1.72621e-09
2.84342e-10
1.81908e-11
4.804e-12
1.54535e-11
6.72306e-11
7.81791e-09
8.3747e-07
3.266e-07
2.52994e-07
1.90047e-07
5.41374e-07
1.35997e-06
4.35053e-06
1.47241e-05
4.78307e-05
0.000125037
0.00017785
0.000167276
2.86504e-05
2.04144e-05
0.0001227
0.00012506
2.90853e-05
0.000136633
0.00014133
0.00014268
0.000139611
0.000139009
0.00013905
0.000134092
6.28631e-05
0.000132206
0.000133348
6.65518e-05
0.000135625
0.000137188
0.000140649
0.000141951
0.000136882
0.000118892
0.000102741
8.28154e-05
6.73147e-05
5.57409e-05
4.78736e-05
4.3933e-05
3.98651e-05
3.75757e-05
8.34997e-06
4.1429e-05
4.39102e-05
5.26348e-05
6.47833e-05
6.80907e-05
5.68526e-05
7.9425e-05
0.000110335
5.32485e-05
0.000114428
0.000102381
0.000104937
0.000106136
8.90456e-05
0.000108373
0.000122421
0.000120293
0.000119891
0.000120384
0.000121651
0.000122641
0.00012402
0.00010932
9.12708e-05
0.000109344
9.38175e-05
9.57496e-05
0.000124826
0.000121742
8.84467e-05
0.000109681
9.94241e-05
9.11902e-05
8.20691e-05
7.27945e-05
6.2706e-05
5.25609e-05
4.41931e-05
3.66686e-05
2.96793e-05
2.46353e-05
2.14715e-05
1.91437e-05
1.62646e-05
1.31568e-05
9.96469e-16
2.99026e-10
2.2092e-08
2.08219e-07
5.43918e-10
1.82356e-11
9.96367e-10
4.16045e-12
2.73919e-11
1.526e-10
1.1443e-09
3.2038e-08
3.50181e-06
7.03796e-06
8.90982e-07
4.77637e-07
8.44284e-07
3.61131e-06
1.22938e-05
2.8127e-05
5.86275e-05
0.000139753
0.000177735
0.000167025
0.000139545
2.38766e-05
0.000122119
0.000123595
0.000126788
0.000132376
0.00013763
0.000136323
0.000125112
2.93359e-05
3.95543e-05
0.000137235
0.000136561
0.000134655
0.000135647
0.000137976
0.000137292
0.000138842
0.0001395
0.00013656
0.000129427
0.000114179
9.91458e-05
8.01052e-05
6.6011e-05
5.75478e-05
5.19873e-05
4.83275e-05
4.85259e-05
4.56675e-05
4.77477e-05
5.00079e-05
1.20639e-05
2.24893e-05
6.85568e-05
7.67735e-05
7.97049e-05
0.000114674
0.000107714
9.83146e-05
6.73301e-05
7.60708e-05
0.0001049
0.000105856
9.1647e-05
0.00012084
0.00011954
0.000117888
0.000117681
0.000118426
0.0001197
0.000121003
9.51453e-05
9.47753e-05
0.000108975
0.000109372
0.000109876
0.000125977
0.000123297
0.000120105
0.000115349
0.000106276
9.79908e-05
8.97382e-05
8.08993e-05
7.18321e-05
6.19744e-05
5.18256e-05
4.33441e-05
3.58566e-05
2.92019e-05
2.43481e-05
2.12217e-05
1.89116e-05
1.59654e-05
1.30136e-05
4.02504e-17
5.29823e-10
2.23161e-08
1.87518e-08
1.08368e-11
2.99127e-12
4.40007e-12
3.48347e-11
5.59304e-11
1.77048e-09
1.52231e-08
1.81588e-07
1.44876e-05
2.89474e-05
3.92655e-06
1.33419e-06
1.80533e-06
5.50124e-06
2.51656e-05
6.20185e-05
0.000109359
0.000154118
0.000177787
0.000164611
0.000140744
0.000126002
0.000118838
0.000120566
0.000121738
0.000124297
0.000127215
0.00012578
0.000120641
0.000122137
0.000126897
2.86365e-05
0.000127319
3.18696e-05
0.000131742
4.1728e-05
0.000134085
0.000137965
0.00013641
0.000127873
0.000118795
0.000107301
9.49213e-05
7.87903e-05
1.61353e-05
6.01325e-05
5.75614e-05
5.55368e-05
5.42508e-05
5.48968e-05
1.36545e-05
5.97854e-05
2.54343e-05
6.67429e-05
7.73925e-05
8.44236e-05
0.000118054
6.14201e-05
0.000105718
0.000114147
0.000101169
0.00010333
0.000104414
0.00010499
0.000118793
9.17961e-05
0.000116523
0.000115278
0.000115305
0.000116254
0.000117634
0.000119191
0.000120992
0.000122931
0.000108786
9.48719e-05
0.000124969
0.000124383
0.0001216
0.000118294
0.000113185
0.000104615
9.64337e-05
8.82126e-05
7.96377e-05
5.9838e-05
6.11705e-05
5.10531e-05
4.24578e-05
3.50593e-05
2.86757e-05
2.40334e-05
2.09442e-05
1.86624e-05
1.56094e-05
1.286e-05
4.04225e-13
9.62761e-12
1.0376e-09
1.27457e-09
1.82182e-11
6.43025e-11
9.4168e-11
1.79757e-09
5.29802e-09
1.23963e-08
4.91885e-08
2.98517e-07
9.68511e-06
7.08153e-05
9.22278e-06
2.22976e-06
2.24444e-06
6.73289e-06
4.93926e-05
6.00457e-05
0.000134155
0.000169594
8.81167e-05
0.000158837
0.000140466
2.5737e-05
2.08374e-05
0.000116068
0.000114046
2.294e-05
0.000114965
0.000115042
0.00011297
0.000114956
0.000117544
0.000117716
0.000118235
0.000115164
3.08149e-05
0.000122172
0.000126605
0.000128266
0.000125401
0.000114965
0.000106516
0.000100451
8.9528e-05
8.18822e-05
7.32499e-05
6.47848e-05
1.78823e-05
1.78354e-05
1.76848e-05
6.09714e-05
6.216e-05
6.45937e-05
6.79812e-05
7.65202e-05
8.50366e-05
0.000121753
0.000115464
4.88155e-05
9.83823e-05
9.89114e-05
0.000101272
0.000102547
8.85196e-05
8.97497e-05
0.00011506
0.000114548
0.000113313
0.000112493
0.000112733
0.000113912
0.000115419
0.000117227
0.000119049
0.000121099
0.000123265
0.000123291
0.000123384
0.000122678
0.000119779
0.000116361
0.000110956
0.000102808
9.47679e-05
8.65935e-05
7.83327e-05
6.9335e-05
6.02784e-05
4.38823e-05
4.15299e-05
3.427e-05
2.81183e-05
2.3689e-05
2.06422e-05
1.83939e-05
1.5313e-05
1.26944e-05
5.26358e-13
3.56373e-14
9.90492e-13
4.53679e-11
5.86621e-10
3.55595e-09
4.12718e-09
3.18469e-08
6.69181e-08
2.37572e-07
4.17714e-07
1.34905e-06
1.14021e-05
8.23873e-05
1.01716e-05
3.05072e-06
3.56802e-06
9.64263e-06
4.62831e-05
0.000109872
0.000153944
0.00017812
6.84286e-05
0.000152282
0.000138782
3.22487e-05
0.000119776
0.000117943
1.78001e-05
0.000108476
1.89922e-05
0.000108915
0.00010932
0.000109117
0.000109787
0.000109825
0.000110334
0.00010891
0.00011116
0.000110879
2.76594e-05
3.16575e-05
0.000111845
9.85867e-05
2.33159e-05
9.45407e-05
8.86787e-05
2.56996e-05
8.49428e-05
7.38722e-05
2.54725e-05
7.44872e-05
7.34457e-05
7.07909e-05
3.95609e-05
5.33205e-05
7.75251e-05
6.77165e-05
0.000124202
0.00012116
0.000110477
5.71218e-05
6.4832e-05
9.92797e-05
7.95358e-05
0.000101181
8.78917e-05
0.000111161
0.000111161
0.000110798
0.000110063
0.000109579
0.00011003
0.000111398
0.000113096
0.000115065
0.000116986
0.000119064
9.40544e-05
0.000121463
0.000121603
9.35625e-05
0.000117795
0.000114277
0.000108668
0.000100888
9.29995e-05
8.49089e-05
7.69953e-05
6.77583e-05
5.0658e-05
4.92166e-05
4.05676e-05
3.34824e-05
2.75324e-05
2.33212e-05
2.03178e-05
1.80267e-05
1.50235e-05
1.25219e-05
2.62958e-14
9.66458e-12
1.97453e-11
5.37542e-09
6.50325e-07
1.53956e-07
2.01376e-07
8.16729e-07
1.75796e-06
9.36173e-06
3.76059e-06
8.49451e-06
1.64362e-05
5.08361e-05
1.17007e-05
4.86585e-06
7.17382e-06
1.61185e-05
4.7249e-05
6.80343e-05
0.000172974
9.35389e-05
0.000156188
0.000153394
0.00014015
0.00012858
0.000121037
0.000121188
0.000111723
0.000110196
0.00010397
0.000106736
0.000103438
1.7361e-05
0.000101754
0.000101253
9.91973e-05
9.7169e-05
2.06194e-05
0.000101854
0.0001029
0.000101177
9.68395e-05
8.80189e-05
2.13677e-05
9.46077e-05
9.88237e-05
0.000102033
9.57831e-05
9.36039e-05
9.97387e-05
0.000100575
9.2751e-05
5.94941e-05
6.1409e-05
8.2868e-05
8.61013e-05
9.89138e-05
0.000121659
0.000111982
9.72161e-05
9.79839e-05
6.70415e-05
9.89907e-05
9.95384e-05
0.000109524
0.000108445
0.000106855
0.000107254
0.000107125
0.000106767
0.000106537
0.000107181
0.000108744
0.000110645
0.000112779
0.000114771
0.000116799
0.000119544
0.000119453
0.000119626
0.000118781
0.00011566
8.63714e-05
0.000104487
8.14165e-05
7.61077e-05
8.31598e-05
7.55778e-05
6.61509e-05
5.77849e-05
4.80996e-05
3.95757e-05
3.26961e-05
2.69265e-05
2.29312e-05
1.9967e-05
1.76544e-05
1.47373e-05
1.23497e-05
1.57176e-09
3.9689e-10
3.02204e-09
2.58887e-07
5.91292e-05
3.82755e-06
2.86481e-06
6.93495e-06
1.34564e-05
1.56248e-05
1.36397e-05
1.21624e-05
1.97592e-05
3.53657e-05
1.6905e-05
8.719e-06
1.5107e-05
2.86009e-05
8.15558e-05
7.70591e-05
0.000184624
0.000178658
7.38661e-05
0.000152966
0.000141049
0.000126379
3.09297e-05
0.000122557
0.000118144
0.000113062
0.000107386
0.000104454
2.0569e-05
0.000100449
1.85037e-05
9.25797e-05
8.97703e-05
1.4294e-05
1.82493e-05
9.52596e-05
9.55123e-05
9.16449e-05
8.71051e-05
8.12876e-05
8.63341e-05
9.93418e-05
0.000107118
0.000112815
0.000115236
6.78683e-05
0.000124786
0.000113636
0.000115687
0.000117088
0.000121535
0.000104601
0.000123452
0.00012179
0.000112561
5.70264e-05
0.000110997
9.59751e-05
9.70315e-05
9.7945e-05
0.000108137
0.000105244
0.000103704
0.000102633
8.12642e-05
0.0001035
0.000101414
0.000101471
0.000102382
0.000105968
0.000108096
0.000110323
0.000112429
0.000114412
9.09428e-05
0.000117211
0.000117457
0.000116557
0.000113405
0.000109627
0.00010199
9.6587e-05
8.91063e-05
8.13874e-05
7.40898e-05
6.44917e-05
4.81813e-05
4.69604e-05
3.85974e-05
3.19014e-05
2.63708e-05
2.25053e-05
1.95985e-05
1.72711e-05
1.44539e-05
1.21641e-05
2.25972e-06
1.66339e-07
2.33004e-07
7.7665e-06
6.71971e-05
1.14034e-05
1.51298e-05
3.09383e-05
2.57464e-05
3.08059e-05
3.24211e-05
2.80797e-05
3.63366e-05
4.01879e-05
2.24347e-05
1.40348e-05
2.7153e-05
4.76605e-05
9.29435e-05
0.000157706
0.000112516
0.000106465
0.00017075
7.60098e-05
5.40237e-05
3.69854e-05
3.80889e-05
0.00012524
0.000121959
0.000116835
2.64603e-05
2.43381e-05
0.000107315
0.000105652
0.000100755
1.65646e-05
1.61656e-05
8.91163e-05
9.108e-05
2.05627e-05
8.70019e-05
8.04688e-05
1.91055e-05
8.25622e-05
3.03634e-05
0.000108222
6.0887e-05
0.000125451
0.000129327
0.00010453
0.000133072
0.00012771
0.000124803
0.000125022
0.000125516
0.000123527
0.000116455
7.09263e-05
5.74516e-05
0.000111172
6.70956e-05
7.11947e-05
9.55462e-05
0.000106319
0.00010295
9.98569e-05
9.8126e-05
9.76116e-05
9.65138e-05
9.70876e-05
9.73403e-05
9.76598e-05
9.87221e-05
0.000100688
8.33861e-05
0.000107258
0.000109518
8.3925e-05
0.000113842
8.76421e-05
0.000114673
0.000113731
0.000110547
0.000106477
9.89177e-05
7.78461e-05
8.65518e-05
7.91884e-05
7.22926e-05
5.30319e-05
5.40681e-05
4.55746e-05
3.74639e-05
3.09388e-05
2.56907e-05
2.19134e-05
1.91292e-05
1.68018e-05
1.41114e-05
1.19328e-05
1.4672e-05
2.6326e-06
2.91133e-06
7.49291e-06
2.23854e-05
1.46955e-05
3.89894e-05
8.98236e-05
6.53016e-05
6.07636e-05
5.49466e-05
5.05845e-05
5.28017e-05
5.55216e-05
3.12606e-05
3.63094e-05
5.01832e-05
5.56347e-05
7.31252e-05
0.000168867
0.000186905
0.000185461
0.000177732
0.000160046
5.65387e-05
5.2906e-05
5.34819e-05
0.000134405
5.4167e-05
0.000125936
0.000119197
0.000119579
0.000117132
0.00011428
0.000111876
0.000104554
0.000101615
9.72528e-05
2.09472e-05
8.57933e-05
1.98236e-05
1.6664e-05
1.96692e-05
9.37057e-05
0.000108005
0.000120817
0.000143267
0.000145309
0.000138254
0.000127725
0.000113576
7.45042e-05
7.39552e-05
7.43226e-05
0.000108662
0.000106594
6.02346e-05
6.43873e-05
9.57367e-05
6.98151e-05
7.30547e-05
7.80829e-05
0.000101658
0.000100152
9.69283e-05
9.3627e-05
9.03481e-05
9.01989e-05
9.09568e-05
9.23331e-05
9.2917e-05
9.34036e-05
9.46143e-05
9.66298e-05
9.90646e-05
0.000103522
0.000105802
0.000107518
0.00010978
0.000110601
0.000111182
0.000110279
0.000107094
0.000100864
9.53751e-05
9.01381e-05
8.35271e-05
7.65032e-05
6.97845e-05
6.016e-05
5.1558e-05
4.36737e-05
3.61085e-05
2.97968e-05
2.48773e-05
2.11946e-05
1.85527e-05
1.63121e-05
1.37029e-05
1.16411e-05
4.75605e-05
2.86611e-06
1.01386e-05
1.13e-05
1.45881e-05
1.75266e-05
4.93999e-05
8.1639e-05
7.84222e-05
9.72434e-05
8.38077e-05
0.000122042
9.94578e-05
5.85696e-05
4.54056e-05
5.31633e-05
8.90635e-05
0.000123679
8.54605e-05
0.00018749
0.000104705
0.000185836
0.000179452
0.000162129
7.46884e-05
0.000145159
0.000145641
0.00014356
7.42522e-05
0.00013397
5.72314e-05
5.21711e-05
0.000125311
0.000115928
3.98573e-05
0.000115378
0.000112877
0.00010814
9.8362e-05
2.35083e-05
8.86868e-05
8.72997e-05
9.5425e-05
3.61993e-05
0.000120431
0.000144249
0.000144509
0.000124686
0.000109703
0.000103192
0.000101656
6.73607e-05
9.91833e-05
6.60553e-05
9.77158e-05
6.56874e-05
6.55078e-05
6.94193e-05
9.47537e-05
9.31412e-05
9.1092e-05
9.74345e-05
9.48837e-05
9.36293e-05
7.30961e-05
8.60687e-05
8.47456e-05
8.49478e-05
7.20957e-05
7.37373e-05
8.85396e-05
8.91695e-05
9.04766e-05
9.26095e-05
9.50028e-05
9.77691e-05
0.000101853
0.000103525
0.000105584
0.000106631
0.000107273
0.000106594
8.24899e-05
9.69296e-05
9.17581e-05
8.65635e-05
8.0479e-05
7.37434e-05
6.70859e-05
4.93034e-05
4.92783e-05
4.17637e-05
3.47284e-05
2.8614e-05
2.40332e-05
2.04407e-05
1.78683e-05
1.58253e-05
1.3296e-05
1.13267e-05
5.21869e-05
1.42168e-05
1.3082e-05
1.32663e-05
1.29817e-05
1.93983e-05
4.32967e-05
6.37537e-05
7.74821e-05
0.000114675
0.000166903
0.000170727
0.000142033
0.000128022
7.08228e-05
0.000117104
0.000136417
7.49072e-05
0.000175367
0.000185567
0.000187109
0.000101585
9.74229e-05
9.60222e-05
8.85874e-05
0.000155106
0.0001553
0.000155662
0.000155684
0.000149097
8.4749e-05
0.000144782
0.000139559
6.42317e-05
0.000133692
0.0001308
5.40269e-05
0.000117412
0.000108208
0.000103056
0.000102122
3.40254e-05
0.000111705
0.000122658
0.00010832
0.00010178
8.92301e-05
0.000107134
0.000105458
0.000104142
0.000102813
7.5517e-05
7.39854e-05
9.8876e-05
9.7811e-05
9.64224e-05
9.51616e-05
9.3685e-05
9.16511e-05
9.77231e-05
9.377e-05
7.00958e-05
8.8105e-05
6.99374e-05
8.28803e-05
8.03935e-05
7.94751e-05
7.99765e-05
8.11475e-05
8.29189e-05
7.05799e-05
8.50325e-05
8.63947e-05
8.85759e-05
9.10044e-05
9.38974e-05
9.59412e-05
9.75874e-05
0.000101313
8.17294e-05
0.0001032
0.000102676
9.74829e-05
9.3112e-05
8.80883e-05
8.3009e-05
7.74653e-05
7.09322e-05
6.41857e-05
5.51257e-05
4.70289e-05
3.98775e-05
3.32007e-05
2.74583e-05
2.31686e-05
1.9658e-05
1.71947e-05
1.53233e-05
1.28825e-05
1.09947e-05
5.04648e-05
3.84858e-05
2.67355e-05
2.00861e-05
2.38702e-05
3.86644e-05
5.10886e-05
5.76384e-05
7.62589e-05
0.000121795
0.000167989
0.000100751
0.000176848
8.60382e-05
0.000156599
0.000159937
0.000169506
0.000176268
0.000181918
0.000184412
0.000184
8.45783e-05
0.000176862
0.00017051
0.000165531
0.000162954
0.00015865
0.000100829
0.000161945
0.000104566
0.000155898
0.000155237
0.000105647
0.000152708
9.49575e-05
0.000145993
0.000135216
0.000128493
0.000124464
0.000115938
0.000113567
0.000118888
0.000134597
0.000108432
0.000141359
0.000114003
0.000120048
0.00011558
0.000113223
0.000112234
8.60171e-05
8.41697e-05
8.26362e-05
9.70132e-05
8.07456e-05
9.35646e-05
0.000101412
7.64048e-05
9.44582e-05
9.07035e-05
8.68461e-05
8.27239e-05
8.0364e-05
7.91054e-05
7.69627e-05
7.50214e-05
7.44561e-05
7.52004e-05
7.64688e-05
7.82264e-05
7.98285e-05
8.09032e-05
8.23027e-05
8.45927e-05
8.70375e-05
9.00042e-05
7.61094e-05
9.33896e-05
9.50675e-05
9.62944e-05
9.69851e-05
9.65142e-05
7.72937e-05
8.90914e-05
8.44533e-05
7.94906e-05
7.43659e-05
6.81202e-05
6.12167e-05
5.2379e-05
4.47677e-05
3.81775e-05
3.16672e-05
2.62854e-05
2.22749e-05
1.88488e-05
1.65534e-05
1.4743e-05
1.24478e-05
1.06495e-05
5.02902e-05
4.99856e-05
4.18371e-05
3.56914e-05
4.2743e-05
5.44666e-05
6.24878e-05
6.74329e-05
7.53032e-05
0.000112056
0.00017489
0.000186665
0.000193937
0.000192612
0.000187104
0.00018638
0.000184216
9.90469e-05
0.000184603
0.000183141
0.00017989
0.000174549
0.000172712
0.000170797
0.000167754
9.77845e-05
0.000165536
0.000167337
0.000164748
0.000160835
0.000159444
0.000159081
0.000158958
0.000160329
0.000161294
0.000160262
0.000149803
8.44059e-05
0.000134087
0.000127911
0.000129712
0.000136625
0.000108664
0.00014089
0.000114477
0.000115214
8.26738e-05
0.000105319
0.00010364
0.000103427
0.000103548
0.000102282
0.000101559
0.000101181
9.89224e-05
9.60189e-05
9.30771e-05
9.02738e-05
8.73441e-05
8.26655e-05
7.91067e-05
7.63075e-05
7.43715e-05
7.30998e-05
5.90696e-05
6.98744e-05
6.93959e-05
7.03464e-05
7.18229e-05
7.37509e-05
7.54865e-05
7.67428e-05
7.83324e-05
8.06136e-05
8.31107e-05
8.60148e-05
8.79217e-05
8.9346e-05
9.08606e-05
9.17801e-05
9.26179e-05
9.23015e-05
8.91211e-05
8.51165e-05
8.08169e-05
7.61327e-05
7.10462e-05
5.49841e-05
5.84628e-05
4.98303e-05
4.24922e-05
3.62438e-05
3.00569e-05
2.50951e-05
2.12025e-05
1.8032e-05
1.59051e-05
1.41615e-05
1.19826e-05
1.02741e-05
5.21923e-05
5.72999e-05
5.06067e-05
4.74594e-05
4.96683e-05
4.94323e-05
5.13889e-05
6.24398e-05
7.08852e-05
8.93278e-05
0.000144962
0.000193394
0.000188457
7.77143e-05
0.00018841
0.000100436
0.000102847
0.000180582
9.59055e-05
0.000176591
8.17609e-05
0.000164225
0.000163736
0.000166235
7.92661e-05
8.11786e-05
0.000166684
0.000121923
0.000161008
0.000155512
0.000153949
0.000150507
0.00013211
0.000156527
0.000161622
0.000160648
0.000111471
0.000151396
0.000143995
9.34409e-05
0.000140288
0.000109175
0.000138781
0.000117781
0.000109386
0.00010305
9.66885e-05
9.3538e-05
9.245e-05
9.2613e-05
7.53794e-05
9.25388e-05
9.21187e-05
7.27995e-05
7.1791e-05
8.76332e-05
8.40003e-05
8.14074e-05
6.37997e-05
7.59912e-05
7.29151e-05
7.04474e-05
6.87045e-05
6.74938e-05
6.60888e-05
6.46849e-05
6.44635e-05
6.56168e-05
6.72486e-05
6.93416e-05
5.91692e-05
7.24722e-05
7.42783e-05
7.674e-05
7.92478e-05
8.20256e-05
8.38674e-05
8.54851e-05
8.69506e-05
8.7729e-05
7.40612e-05
7.40122e-05
8.49379e-05
8.1313e-05
7.739e-05
7.28052e-05
6.79075e-05
6.21219e-05
5.5451e-05
4.73886e-05
4.02735e-05
3.43495e-05
2.84958e-05
2.39184e-05
2.0164e-05
1.72894e-05
1.52383e-05
1.3529e-05
1.14987e-05
9.93395e-06
5.51811e-05
6.24964e-05
5.76702e-05
5.13758e-05
4.42095e-05
3.36668e-05
3.14981e-05
3.98488e-05
5.38814e-05
6.53914e-05
9.78829e-05
7.40281e-05
0.000181553
0.000182524
0.000181279
0.000175361
0.000172322
0.000170586
0.000168003
0.000159752
0.000151521
0.000146575
9.8396e-05
0.00015545
0.000158877
0.000121259
0.000162316
0.000134668
0.000154468
0.000145868
0.00014415
0.000149633
0.000152653
0.000155929
0.000155846
0.000156349
0.000156302
0.000158323
0.0001508
0.000147174
0.00014417
0.000122374
0.000115324
0.000106175
9.59053e-05
7.24345e-05
8.61078e-05
8.38677e-05
8.32987e-05
8.36635e-05
6.89143e-05
8.21409e-05
8.19583e-05
8.19489e-05
8.05921e-05
7.85592e-05
7.64474e-05
7.42582e-05
7.23184e-05
5.59277e-05
6.69787e-05
6.4715e-05
6.30716e-05
6.19291e-05
6.0386e-05
5.93795e-05
5.94118e-05
6.06997e-05
6.25291e-05
6.47434e-05
6.68197e-05
6.83453e-05
7.02487e-05
7.27613e-05
7.54216e-05
7.81429e-05
8.00327e-05
8.17304e-05
8.30993e-05
8.37813e-05
8.44899e-05
7.10619e-05
8.1126e-05
7.76544e-05
7.40507e-05
6.94421e-05
6.4742e-05
5.90403e-05
5.24609e-05
4.49244e-05
3.82238e-05
3.24822e-05
2.70629e-05
2.27373e-05
1.91371e-05
1.65457e-05
1.45797e-05
1.29037e-05
1.10077e-05
9.58098e-06
5.87738e-05
6.4141e-05
5.58863e-05
4.44533e-05
3.19127e-05
1.84282e-05
1.43712e-05
1.93311e-05
3.20636e-05
4.4628e-05
6.00067e-05
0.000101264
0.000151641
0.000164438
0.000166504
0.000162943
7.98402e-05
8.77187e-05
0.000147462
8.87051e-05
0.00012618
0.000124363
0.000131733
0.000139146
0.000143958
0.000142719
0.000115919
0.00014801
0.000108759
0.000130836
0.000123467
0.000135593
0.000109234
0.000152523
0.000160672
0.00015774
0.000154372
0.000122204
0.000141944
0.000106965
0.000118807
0.00010948
0.000101832
7.32869e-05
8.42884e-05
7.89706e-05
6.0839e-05
7.44882e-05
6.01197e-05
7.5408e-05
6.08869e-05
7.39259e-05
7.38969e-05
7.39416e-05
5.88643e-05
7.12746e-05
6.9414e-05
6.74331e-05
6.54397e-05
6.3361e-05
6.11095e-05
5.89821e-05
5.73728e-05
4.60952e-05
5.49093e-05
5.42011e-05
5.44133e-05
5.59471e-05
5.7983e-05
6.02139e-05
6.22136e-05
6.41111e-05
6.62007e-05
6.88936e-05
7.15055e-05
7.43647e-05
7.63337e-05
7.7942e-05
7.92697e-05
7.99066e-05
8.0451e-05
8.01819e-05
6.49845e-05
7.41058e-05
7.06232e-05
6.61951e-05
6.14103e-05
5.59552e-05
4.97015e-05
4.24341e-05
3.61878e-05
3.06163e-05
2.56398e-05
2.15536e-05
1.82208e-05
1.57877e-05
1.39247e-05
1.22873e-05
1.05654e-05
9.2122e-06
6.24633e-05
5.90985e-05
4.28176e-05
3.07577e-05
2.03632e-05
1.10421e-05
7.42969e-06
8.34834e-06
1.71748e-05
2.80925e-05
3.76131e-05
5.72177e-05
9.65935e-05
0.000133916
0.000139989
8.93018e-05
0.000128537
0.000119523
8.71288e-05
0.000109321
0.0001012
0.000102165
0.000107198
7.59599e-05
0.000123409
0.000117132
0.00011312
0.000130672
9.61463e-05
0.000112959
0.000101219
0.000106562
0.000119895
0.000137426
0.00015516
0.000122053
0.000152682
0.000142754
0.000131343
9.2002e-05
0.000105595
7.36846e-05
8.68204e-05
6.22288e-05
5.7293e-05
6.75397e-05
6.54309e-05
6.48865e-05
6.55769e-05
5.41077e-05
6.62036e-05
6.58373e-05
6.60256e-05
6.626e-05
6.55496e-05
6.41416e-05
6.24564e-05
6.06559e-05
5.87946e-05
5.69293e-05
5.52433e-05
5.33655e-05
5.1656e-05
5.08407e-05
4.94932e-05
4.90718e-05
4.95622e-05