/*--------------------------------*- C++ -*----------------------------------*\
  =========                 |
  \\      /  F ield         | OpenFOAM: The Open Source CFD Toolbox
   \\    /   O peration     | Website:  https://openfoam.org
    \\  /    A nd           | Version:  6
     \\/     M anipulation  |
\*---------------------------------------------------------------------------*/
FoamFile
{
    version     2.0;
    format      ascii;
    class       volScalarField;
    location    "0.1";
    object      C2H4;
}
// * * * * * * * * * * * * * * * * * * * * * * * * * * * * * * * * * * * * * //

dimensions      [0 0 0 0 0 0 0];

internalField   nonuniform List<scalar> 
8000
(
2.11672e-05
0.000128901
0.000794345
0.00412996
0.00851351
0.0045888
0.00166908
0.000524944
0.000177643
7.72369e-05
3.92496e-05
3.24228e-05
5.17563e-05
0.000139994
0.000137213
0.000143279
0.000191058
0.00955872
0.000389964
0.000244348
0.000237333
0.000266278
0.000856682
0.00502574
0.0145553
0.0206623
0.0223223
0.0217172
0.0203459
0.0125812
0.0094693
0.0106224
0.00536296
0.00286011
0.00178975
0.00133333
0.00120766
0.00138878
0.00226947
0.00370493
0.00279996
0.0024566
0.0028104
0.00394719
0.00613222
0.0101399
0.0157712
0.021199
0.0257935
0.0153147
0.0130994
0.0220363
0.0232318
0.0231781
0.0230251
0.0228049
0.022608
0.0225193
0.0225387
0.0226374
0.0255095
0.0251511
0.0284655
0.0222953
0.0232335
0.0217156
0.0191171
0.0178319
0.0165551
0.0157936
0.0156276
0.0137624
0.0139094
0.0096113
0.00980495
0.0144903
0.014459
0.0149605
0.0158432
0.0162228
0.0153598
0.0151988
0.0141431
0.00927224
0.0078147
0.00634575
0.00528107
0.00442993
0.00557215
0.00310434
0.00247226
0.00190454
0.00149311
0.0012371
0.000824041
0.000634098
0.000531954
0.000462352
0.000446017
0.000297647
2.06896e-05
0.00013507
0.000881041
0.00460325
0.0103933
0.00464311
0.00156722
0.000496204
0.000165595
7.16997e-05
3.69113e-05
3.51641e-05
7.00512e-05
0.000282923
0.000223548
0.000167956
0.000190692
0.000286556
0.000301049
0.000321712
0.000268901
0.000308623
0.00106145
0.00553645
0.0151798
0.0211173
0.0226187
0.0218399
0.0200975
0.0195529
0.0143776
0.00937105
0.00517039
0.00309954
0.00224786
0.00182815
0.00165812
0.00181328
0.00279257
0.00486746
0.00369802
0.00289745
0.00319411
0.00437248
0.00661825
0.0106834
0.0162181
0.0214122
0.0257479
0.0257953
0.023196
0.0232144
0.02324
0.0231321
0.0229886
0.0227898
0.022618
0.0225462
0.0225747
0.0226599
0.0254473
0.0251151
0.0284856
0.0218065
0.0232626
0.021568
0.0189878
0.0177468
0.0164905
0.0156913
0.0151895
0.0136766
0.0138873
0.0095504
0.00975466
0.0144685
0.0144055
0.0149205
0.0157862
0.0162336
0.0153223
0.015188
0.0141034
0.0092385
0.00781867
0.00633126
0.00526932
0.00442161
0.00372233
0.00309886
0.00246849
0.00190134
0.0014909
0.0012368
0.000822424
0.000633051
0.000531251
0.000461699
0.000446513
0.000297172
2.32536e-05
0.000164804
0.00247211
0.0061699
0.00519456
0.00279975
0.00105965
0.00116876
0.000368164
7.48482e-05
9.17066e-05
3.76931e-05
8.933e-05
0.000387847
0.000641224
0.000231136
0.000185271
0.00021512
0.000374148
0.00254042
0.000396295
0.0004302
0.00156385
0.00665139
0.0163772
0.022587
0.0231535
0.0221096
0.0195786
0.0169981
0.0132053
0.00870242
0.00527231
0.00370805
0.00337513
0.00324685
0.00282463
0.00289771
0.00326566
0.00387802
0.00347166
0.00346767
0.00395421
0.00526402
0.0076247
0.011816
0.0172108
0.0219505
0.0260307
0.0261233
0.0266665
0.0232259
0.0230905
0.0230182
0.0229227
0.0227709
0.022639
0.0226001
0.0226443
0.0237961
0.0253172
0.025053
0.0285362
0.0223739
0.0230666
0.0212524
0.0183256
0.0175532
0.0163569
0.0154825
0.0148461
0.0135178
0.0109715
0.00941446
0.00964645
0.0128618
0.0142881
0.0148335
0.0156642
0.0163495
0.0152383
0.0151656
0.0140127
0.00917025
0.00837153
0.00629901
0.00524544
0.0044035
0.00369804
0.00308749
0.00246028
0.00189433
0.00188712
0.00157224
0.000818844
0.000630767
0.000529704
0.00046026
0.000742436
0.00029613
3.06616e-05
0.000216667
0.00267977
0.00389216
0.00278342
0.00152216
0.000598234
0.000216744
8.88937e-05
4.04234e-05
2.45536e-05
2.73765e-05
6.22832e-05
0.000660007
0.0100998
0.000273987
0.000169956
0.000189226
0.000275992
0.000369559
0.000311505
0.0005391
0.00234872
0.00862029
0.0176532
0.0115606
0.0241411
0.0224179
0.0198454
0.0163901
0.0129294
0.00877679
0.00584486
0.00461579
0.00500853
0.00482526
0.00486292
0.00407139
0.0046852
0.00470103
0.00447524
0.00473603
0.00524271
0.00660484
0.00955865
0.0143517
0.0186674
0.0227948
0.0265498
0.0277623
0.0268638
0.023144
0.0133134
0.0228987
0.0228755
0.0227707
0.0226733
0.0226655
0.0227086
0.0255671
0.0251452
0.0279439
0.028625
0.0228563
0.0229147
0.0207886
0.0179361
0.0172393
0.0161789
0.0151992
0.013321
0.00969211
0.00973132
0.00920125
0.00948634
0.0139702
0.0141098
0.0147044
0.0154864
0.0157633
0.015106
0.0151347
0.013867
0.00908112
0.00760797
0.00624849
0.00520992
0.00437641
0.00367232
0.00307078
0.00244792
0.00188385
0.0014709
0.00118974
0.000813191
0.000627329
0.000527388
0.000458068
0.000424028
0.000294499
2.77295e-05
0.000256142
0.0118297
0.00540552
0.0018744
0.000848193
0.000298012
0.000108429
4.94452e-05
2.42647e-05
4.96712e-05
4.79406e-05
5.34227e-05
0.000233981
0.000365378
0.000197665
0.000144622
0.000172805
0.000231171
0.000257122
0.000286634
0.000841723
0.00395147
0.0111058
0.0186411
0.0232399
0.0234181
0.0220801
0.0203337
0.0169061
0.0134391
0.00958344
0.00692299
0.00568529
0.00541761
0.00527582
0.00488965
0.00515246
0.00591452
0.00464128
0.006384
0.00682845
0.00717509
0.00876211
0.0114275
0.0165152
0.0211836
0.0244737
0.027091
0.0267363
0.0269457
0.0231705
0.0218735
0.0229242
0.0228857
0.0227964
0.0227084
0.0227226
0.0237864
0.0253127
0.0249653
0.0279686
0.0287208
0.023561
0.022323
0.0194236
0.0174316
0.016782
0.0161417
0.0148587
0.0141823
0.00936764
0.0092186
0.00893175
0.00928171
0.0135896
0.0138861
0.0145368
0.0152654
0.0154015
0.0149384
0.0140978
0.0136613
0.0096289
0.00745738
0.00618307
0.00516292
0.00434041
0.00364422
0.00304892
0.00243155
0.00187008
0.00145437
0.00115219
0.000805984
0.000622828
0.000524335
0.000455168
0.000405805
0.000292501
2.21344e-05
0.000427863
0.00976072
0.00245595
0.000902736
0.000405081
0.000141346
0.000163661
3.08152e-05
1.89199e-05
1.69588e-05
2.12598e-05
3.21491e-05
0.000161596
0.000188347
0.000190341
0.000261826
0.000240229
0.00037823
0.000237747
0.000368372
0.00156723
0.004566
0.00968381
0.0202776
0.0231954
0.0234337
0.0223332
0.0210261
0.0178615
0.0146605
0.0110609
0.00892668
0.00721852
0.00653937
0.00605549
0.00584624
0.00619449
0.00709484
0.00849433
0.00855796
0.0102039
0.00712572
0.0108342
0.0142996
0.018796
0.0228604
0.0253099
0.0274703
0.0122042
0.0269356
0.0232103
0.0128423
0.0229341
0.0229164
0.0228381
0.0227183
0.0226448
0.0254355
0.0250368
0.0248474
0.0280296
0.0288465
0.0228433
0.0216683
0.0187253
0.0168323
0.0161833
0.0154054
0.0144701
0.0137685
0.00898204
0.00875089
0.00864191
0.00903946
0.0132388
0.0136305
0.0143334
0.0150084
0.01511
0.0147408
0.013611
0.00979563
0.00864407
0.00732715
0.00610398
0.00510502
0.00429841
0.00361051
0.00302211
0.00241127
0.00185321
0.00143592
0.0014501
0.000797442
0.000618283
0.000520484
0.000451631
0.00039155
0.000290204
1.63604e-05
0.00017695
0.00149789
0.00153637
0.000339069
0.000178213
0.000216919
0.0001614
6.88162e-05
2.0082e-05
2.01265e-05
2.81198e-05
6.91973e-05
0.000113341
0.00013122
0.000130048
0.000164846
0.000196768
0.000219899
0.00024527
0.000822674
0.0028906
0.00881287
0.0159501
0.0210174
0.0110787
0.0109817
0.0227536
0.0107425
0.0197575
0.0165533
0.0137515
0.0111738
0.00977646
0.00894998
0.00831238
0.00759252
0.00826419
0.00915759
0.0109065
0.00781304
0.0108984
0.0109789
0.0130284
0.0161013
0.0213873
0.0112123
0.0264531
0.027625
0.0281861
0.0268636
0.0257741
0.0127322
0.0229715
0.0229398
0.0228145
0.0226413
0.0123724
0.0251212
0.0247535
0.0248036
0.028101
0.021111
0.0224118
0.0228277
0.0175082
0.0161619
0.0154919
0.0148728
0.014061
0.0133875
0.00857524
0.00834001
0.00832949
0.00876722
0.00930471
0.0133471
0.0140943
0.0147257
0.0139096
0.0145172
0.0143998
0.00944152
0.00834212
0.007208
0.00601198
0.00503633
0.00603834
0.00358284
0.003003
0.00238726
0.00183349
0.00141589
0.00108799
0.000787569
0.000612875
0.000515912
0.000447522
0.000379897
0.000287636
2.45547e-05
0.000179862
0.000664162
0.000249599
0.000136513
8.41152e-05
0.000156127
4.19465e-05
2.36034e-05
2.24532e-05
4.68104e-05
7.5358e-05
9.11088e-05
0.000138544
0.000119532
0.000139448
0.000181572
0.000211468
0.000226806
0.000283893
0.000760516
0.00361287
0.0116193
0.0104757
0.0218653
0.0240358
0.02391
0.0231557
0.0224943
0.0208788
0.0101172
0.0163925
0.014673
0.0132739
0.0124635
0.00737298
0.0105624
0.0106291
0.0120567
0.01275
0.0124449
0.0114525
0.0120139
0.0146498
0.0175293
0.0219266
0.024729
0.0259348
0.0276474
0.0280891
0.0267108
0.0265361
0.0125487
0.0240711
0.0239865
0.0238242
0.0236262
0.0251537
0.024775
0.0271397
0.027725
0.0192733
0.0231844
0.0218938
0.019643
0.0166927
0.0154457
0.0147495
0.0143553
0.0114458
0.00999069
0.00815257
0.00792487
0.00800533
0.00928334
0.00889486
0.0095106
0.0138153
0.0144312
0.0133681
0.0142696
0.0140212
0.00905623
0.00805564
0.0071247
0.00590825
0.00495744
0.00420539
0.0035564
0.00298005
0.00236575
0.00181104
0.00139437
0.0010613
0.000776636
0.000606661
0.000510634
0.000442768
0.000369963
0.000284836
8.54718e-06
8.49598e-05
0.000225722
0.000192251
6.83754e-05
4.05533e-05
3.41713e-05
2.45367e-05
2.36338e-05
3.10074e-05
6.72185e-05
0.000126691
0.000255025
0.000173412
0.000228969
0.000238776
0.000398602
0.000245641
0.000570598
0.000451322
0.00126211
0.00442816
0.0104697
0.017542
0.0110308
0.0113284
0.0242915
0.0240062
0.0109504
0.0218374
0.0205505
0.0192475
0.0186826
0.0175753
0.0157801
0.0150516
0.00874422
0.0141593
0.0150709
0.00898789
0.0139172
0.0136204
0.0145281
0.0164312
0.018842
0.0224326
0.0241277
0.0260253
0.0276194
0.0279249
0.0279965
0.026262
0.0260086
0.0258248
0.0122632
0.0253951
0.0251067
0.0248098
0.0243448
0.0268351
0.0185515
0.0192616
0.0214818
0.0232605
0.0179799
0.0158356
0.0146972
0.01399
0.0125704
0.0129412
0.00861532
0.00769022
0.007516
0.00767146
0.00809378
0.00849563
0.00913541
0.0134907
0.0126157
0.0140971
0.0118956
0.0109748
0.00868213
0.00776996
0.00699267
0.00578739
0.00486916
0.00414789
0.00352512
0.00294901
0.00234409
0.00178612
0.00136867
0.00103596
0.000764654
0.000599638
0.000504734
0.00043735
0.00036116
0.00028179
3.50853e-06
4.06134e-05
7.51259e-05
0.000112699
3.23056e-05
2.24536e-05
4.46103e-05
2.30544e-05
4.38247e-05
8.6672e-05
8.34509e-05
0.00020273
0.000294005
0.000688297
0.00023721
0.0002247
0.000248992
0.00029567
0.000770404
0.00108014
0.00234799
0.00559485
0.0108835
0.0175181
0.0223096
0.0112091
0.0243689
0.0241643
0.023292
0.0225067
0.0217235
0.0213746
0.0228303
0.0105551
0.00999119
0.019095
0.0183154
0.0179937
0.0178142
0.0168759
0.015911
0.0156849
0.0166159
0.0183554
0.0210222
0.0230362
0.0243689
0.0261063
0.0275314
0.0276809
0.0276865
0.0276016
0.0256229
0.0254542
0.0252217
0.0250003
0.0119509
0.0131188
0.0266448
0.0266321
0.0272842
0.0208112
0.020623
0.0190741
0.017705
0.0155575
0.0139426
0.0132163
0.0108353
0.00870168
0.00789785
0.00722098
0.0071591
0.0073297
0.00770408
0.00811101
0.00935526
0.0102742
0.0137091
0.013653
0.0135307
0.00962029
0.00834069
0.00748258
0.00663706
0.00562107
0.00477227
0.00408218
0.00348917
0.00291443
0.00232038
0.00175797
0.00134159
0.00101145
0.00075175
0.000591902
0.000498317
0.000431324
0.000353214
0.000278432
5.53194e-07
3.1274e-05
7.07222e-05
6.64405e-05
2.13257e-05
2.02554e-05
2.39546e-05
4.32377e-05
6.26903e-05
0.000100136
0.000184784
0.000379112
0.000649512
0.00115601
0.000310973
0.000265194
0.000597357
0.000313556
0.000627675
0.00162383
0.00360997
0.00701468
0.0124091
0.0179023
0.0220395
0.0241375
0.0246328
0.0244265
0.024203
0.0233744
0.0229777
0.0234171
0.0237281
0.0233227
0.0225371
0.0106245
0.0219502
0.0103626
0.0204985
0.0100356
0.0191932
0.0181159
0.0188585
0.0211259
0.0224443
0.0236871
0.0245717
0.0260419
0.0116312
0.0273632
0.0272923
0.0271898
0.0271001
0.0250025
0.0117987
0.024559
0.0136322
0.0266904
0.0264287
0.0264801
0.0191977
0.0230159
0.0196572
0.0173403
0.0152236
0.0139026
0.013186
0.0124558
0.00877078
0.00885395
0.00724357
0.00683494
0.00681812
0.0070132
0.00732641
0.00775104
0.0083184
0.00915651
0.0132979
0.0103749
0.00956035
0.00904322
0.00799417
0.00721812
0.00636936
0.00547032
0.00466651
0.00401109
0.00344205
0.00375084
0.0022936
0.00172901
0.00131236
0.000987482
0.000738087
0.000583325
0.000491075
0.000424944
0.000344087
0.00027482
3.61263e-06
2.73992e-05
4.36956e-05
4.87052e-05
2.93525e-05
5.18089e-05
4.79189e-05
8.46382e-05
0.000117793
0.000147982
0.000231631
0.000244988
0.00042217
0.0033048
0.000403504
0.000294162
0.000283481
0.000317252
0.00112562
0.00249768
0.00497725
0.00951786
0.00998242
0.0188506
0.0220851
0.0111166
0.0113744
0.0247798
0.0248526
0.0112455
0.0246172
0.0245146
0.0245404
0.0242669
0.0238609
0.0242091
0.0234886
0.0240987
0.0106034
0.0225576
0.0214456
0.0211685
0.0217113
0.0228999
0.0236665
0.0241564
0.0254076
0.0256651
0.0265424
0.0269769
0.0115524
0.0115818
0.0116196
0.026812
0.0267535
0.0266804
0.0266729
0.026449
0.0262938
0.0184924
0.02005
0.0242716
0.018108
0.0155999
0.0141448
0.0129223
0.0102291
0.00916407
0.00781262
0.00724776
0.00670193
0.00645238
0.00647475
0.00669002
0.00699888
0.00738863
0.00790007
0.00861257
0.00944961
0.00924673
0.00903123
0.00853443
0.00764621
0.00694754
0.00614193
0.00531059
0.00455403
0.00393464
0.00339166
0.00282853
0.00226155
0.0021589
0.00128076
0.000963941
0.00072349
0.000573756
0.000483109
0.000418013
0.000336733
0.000270896
3.86718e-06
1.16525e-05
2.0237e-05
3.80301e-05
7.23473e-05
8.997e-05
0.000110656
0.00016077
0.000166269
0.000201292
0.000245704
0.000326574
0.000468682
0.0019486
0.000432263
0.00031838
0.000305274
0.000350698
0.00102851
0.00320141
0.00634698
0.0120167
0.0107878
0.0198364
0.022273
0.0111319
0.0245521
0.0246291
0.0115076
0.0253264
0.0114199
0.0256571
0.0258842
0.0257819
0.0252419
0.0251115
0.0253073
0.0252981
0.0242598
0.0241196
0.0109436
0.0108928
0.0233557
0.0248846
0.0112485
0.0244776
0.0252915
0.0111076
0.0249206
0.0264446
0.0117249
0.0263615
0.0263821
0.0264675
0.0141798
0.0159285
0.0264699
0.0179237
0.0178811
0.0192276
0.0188398
0.0205489
0.0180452
0.014478
0.0130178
0.0119941
0.00927732
0.00751149
0.00701905
0.00660252
0.00624433
0.0060876
0.0061451
0.00636373
0.00667495
0.00705814
0.00751751
0.00812365
0.00957671
0.00868888
0.00851814
0.00897434
0.00731085
0.00667312
0.00591972
0.00515932
0.00443854
0.0038526
0.00333991
0.00276437
0.00282479
0.00166735
0.00124807
0.000940719
0.000708004
0.000563554
0.000474474
0.000408781
0.000329558
0.000266801
3.75038e-05
2.29172e-05
4.4956e-05
0.000123031
0.000318135
0.000194151
0.000198546
0.000394944
0.000500073
0.000692438
0.0003854
0.00068967
0.000566992
0.00135866
0.000636629
0.000362506
0.000362434
0.000664398
0.0013588
0.00302919
0.00849083
0.0100026
0.0198138
0.0201473
0.0221254
0.0232976
0.0239402
0.0238663
0.0249467
0.0250731
0.0254483
0.0258262
0.0262997
0.011579
0.0261994
0.026122
0.0261567
0.0262102
0.0113293
0.0249398
0.0248354
0.0249036
0.0251713
0.0256567
0.0113594
0.0242989
0.0236043
0.0228715
0.0239
0.0236752
0.0228565
0.022401
0.023963
0.0157958
0.0157361
0.0262753
0.02625
0.0166215
0.0191608
0.0185945
0.01759
0.0166589
0.0159899
0.0133673
0.012102
0.00823046
0.00747852
0.00675802
0.00642409
0.00608151
0.00585159
0.00576823
0.00585082
0.00606574
0.00635488
0.00673769
0.00714745
0.00766224
0.0083928
0.00819147
0.00806599
0.00768075
0.00700527
0.00701993
0.00568172
0.00701078
0.00612884
0.00376595
0.00328004
0.00269721
0.00216935
0.00162906
0.00121436
0.000917946
0.000691875
0.000552679
0.000464986
0.000399333
0.000322494
0.000262784
7.83634e-05
0.000217583
0.000160556
0.000465668
0.00163134
0.000303639
0.000580493
0.000377914
0.000702167
0.000573155
0.000679935
0.000671973
0.000621408
0.000896516
0.000594407
0.000425585
0.000478695
0.000820492
0.00193278
0.00391614
0.0104889
0.0153895
0.0108331
0.019718
0.0220024
0.0233646
0.0112098
0.0236468
0.0239001
0.0247563
0.0251677
0.0253051
0.0113299
0.0260182
0.0114734
0.0266521
0.0267508
0.0118689
0.0114959
0.0255161
0.0254838
0.0256735
0.0258612
0.0260454
0.0255816
0.0237505
0.0225717
0.021433
0.0204615
0.0151247
0.0174871
0.0202705
0.0196192
0.0191031
0.0182683
0.0160793
0.0182114
0.0184587
0.0186667
0.0202524
0.0159772
0.0143282
0.0133497
0.0122952
0.00856317
0.00733362
0.00665218
0.00613661
0.00699732
0.00565781
0.00546509
0.00542073
0.00553528
0.00578413
0.00606427
0.00641687
0.00682145
0.00723291
0.00875315
0.00772273
0.00762001
0.00727316
0.00670102
0.00612754
0.00544902
0.00486072
0.00424351
0.00370447
0.003213
0.00262391
0.00266213
0.0015894
0.00118264
0.000894984
0.000678458
0.000541833
0.000455135
0.000389392
0.000315528
0.000258382
8.59332e-05
0.000534004
0.000363759
0.000716568
0.00158261
0.000584238
0.000441415
0.000950299
0.000836055
0.000751934
0.000792142
0.000865277
0.000882138
0.000949046
0.00065501
0.000676663
0.000659926
0.00106467
0.00233882
0.00557023
0.00794825
0.00998139
0.0168561
0.0109586
0.011393
0.0110121
0.0109387
0.0230664
0.0232616
0.0237762
0.0110652
0.0111831
0.0248515
0.0249116
0.0252171
0.0116553
0.0116911
0.0267806
0.026444
0.0114029
0.0261169
0.0263802
0.0114791
0.0259294
0.0111608
0.0225664
0.0120264
0.0190243
0.0171894
0.0146943
0.0156778
0.0170468
0.0177495
0.0177909
0.0177936
0.0181672
0.0187212
0.0189149
0.0200001
0.015469
0.0151156
0.013656
0.0119092
0.00879077
0.00734252
0.00643366
0.00587276
0.00553174
0.00534018
0.00514993
0.00505935
0.00507417
0.00519427
0.00542454
0.00762562
0.00605717
0.00643704
0.00704323
0.00720973
0.00790965
0.00712491
0.00686224
0.00634186
0.00582128
0.00519427
0.00659924
0.00411622
0.00362964
0.00314504
0.00327397
0.00201666
0.00153955
0.0011471
0.000867271
0.000662192
0.000529205
0.000442465
0.000376962
0.000307085
0.00025285
9.30063e-05
0.000133547
0.000399226
0.000519565
0.000564498
0.000394968
0.000734816
0.00197926
0.00138699
0.00131225
0.00163779
0.00150516
0.00157289
0.00125302
0.000912941
0.000856402
0.00115706
0.00175997
0.00287983
0.00667427
0.0101027
0.0125624
0.0153498
0.0184242
0.0113812
0.0113105
0.0112622
0.0212332
0.0111429
0.0223752
0.022977
0.022973
0.0231932
0.0234666
0.0236446
0.0246633
0.0249333
0.0253627
0.0113939
0.0262315
0.0114719
0.0115692
0.0114458
0.0241883
0.0225517
0.020407
0.0133716
0.0114169
0.0129372
0.0157168
0.0187013
0.0195742
0.0193829
0.0192077
0.0180415
0.0177448
0.0198594
0.0175138
0.0141909
0.0140721
0.0125857
0.0102199
0.00829394
0.00727881
0.00627968
0.00561633
0.00517743
0.00494431
0.00480737
0.00472933
0.0047062
0.00474228
0.00487918
0.00508479
0.00533332
0.00568114
0.00599557
0.0062868
0.00661559
0.00665374
0.0066352
0.00640822
0.00596557
0.00544852
0.00494197
0.00443776
0.00396121
0.00352009
0.0030542
0.00244402
0.00190763
0.00147145
0.00110379
0.000834185
0.000642716
0.00051364
0.000426855
0.00036428
0.000296874
0.000245798
0.000282136
3.67955e-05
0.000270828
0.000428483
0.000387584
0.000292048
0.000735951
0.0014701
0.00142252
0.00204513
0.00344435
0.00322547
0.00244381
0.00181433
0.00137714
0.00174455
0.00239567
0.00383126
0.00489615
0.0101832
0.00693606
0.0122864
0.0140215
0.017674
0.0109504
0.0195351
0.019206
0.0192028
0.0106574
0.0199549
0.0109763
0.0108597
0.0217789
0.0228649
0.0107179
0.0229253
0.0233852
0.0239803
0.0247697
0.0112754
0.0258362
0.0256083
0.0239779
0.0108691
0.0203441
0.0128288
0.0111956
0.0141312
0.0151746
0.0155024
0.0158117
0.017536
0.0159753
0.0174734
0.0152117
0.0162989
0.0159638
0.0144152
0.0123217
0.0114266
0.0105819
0.00783058
0.00689264
0.00616676
0.00757357
0.00498821
0.00467606
0.00449323
0.00642026
0.00637393
0.00438404
0.0044415
0.00456826
0.00477923
0.00501375
0.00528107
0.00560501
0.0058428
0.00608044
0.00614273
0.00614436
0.00597747
0.00757282
0.0051177
0.00468884
0.00426889
0.00380781
0.00339713
0.00294784
0.00299862
0.00182013
0.00139926
0.00105952
0.000799137
0.000622356
0.000497092
0.000412207
0.000351703
0.000286743
0.000238164
0.000302641
9.90335e-05
0.000172013
0.000241074
0.000200219
0.000215692
0.000525335
0.000859963
0.00125452
0.00240732
0.00513448
0.00575872
0.00414114
0.00362307
0.00256961
0.00352862
0.00470989
0.00381733
0.00756597
0.00937015
0.0110795
0.00771845
0.00832299
0.00996248
0.010505
0.0176299
0.017322
0.0167383
0.0160025
0.0168417
0.0101404
0.0171443
0.0181209
0.0107929
0.0193554
0.0200748
0.0112496
0.0229787
0.0238715
0.0242658
0.0240359
0.0110179
0.0221069
0.020071
0.00993257
0.0142204
0.0138255
0.0136115
0.0132489
0.0132777
0.0136783
0.0145991
0.014645
0.0136775
0.0132603
0.0128914
0.0124499
0.011533
0.0106877
0.00817717
0.00733972
0.00729673
0.00589495
0.00745909
0.00484262
0.00452308
0.00431537
0.00418639
0.00411787
0.00410593
0.00582938
0.00420406
0.00434405
0.00451297
0.00471242
0.00497773
0.00519557
0.00542704
0.00563952
0.00738016
0.00571907
0.00559786
0.00522127
0.0048456
0.00445902
0.00408969
0.00369871
0.0032709
0.00281338
0.00222902
0.00173204
0.00132795
0.00101107
0.000765692
0.000601724
0.000479804
0.000398557
0.000338922
0.000276435
0.000230088
0.000276976
0.000230992
0.000228339
0.000244759
0.00027881
0.000402675
0.00052274
0.000657343
0.00106875
0.00213958
0.00502879
0.00459864
0.00649687
0.00428553
0.00555547
0.00633436
0.00755129
0.00855869
0.00903789
0.00927528
0.0101862
0.00584765
0.0114633
0.0131574
0.0150672
0.0156119
0.0162065
0.00875557
0.012316
0.00863152
0.01206
0.0120418
0.00916298
0.0153874
0.0100935
0.0179621
0.0197801
0.0207374
0.0213581
0.0227916
0.0224991
0.0212285
0.0165781
0.0094286
0.0103757
0.0133241
0.00943443
0.00850792
0.00825772
0.008381
0.00990178
0.01027
0.010525
0.0117531
0.0101609
0.0110579
0.00882021
0.0088445
0.00743078
0.00683551
0.00623453
0.0056994
0.00517643
0.00474096
0.00441124
0.00415847
0.00401829
0.00392315
0.00387011
0.00386233
0.00389878
0.00394998
0.00410365
0.00428937
0.00447052
0.00468383
0.00695551
0.00505463
0.00520148
0.0052701
0.00529081
0.00518124
0.00703294
0.00457333
0.00427399
0.00390439
0.00356328
0.00316323
0.00266575
0.00209965
0.00164
0.0012695
0.000961952
0.00073399
0.000580112
0.000461573
0.000386093
0.000328667
0.000265508
0.000221665
0.000271801
0.000297876
0.000276551
0.000309209
0.000395491
0.000483426
0.000571661
0.000675686
0.000923192
0.00191457
0.0039411
0.00754904
0.0100373
0.010119
0.00946159
0.0118848
0.0125843
0.00704826
0.0109645
0.00975378
0.00926731
0.00878995
0.00939566
0.0109271
0.01223
0.00817102
0.0122035
0.010705
0.00939145
0.00905097
0.00864407
0.00870996
0.00930317
0.0102214
0.0116946
0.0158739
0.0178513
0.0109341
0.019585
0.0196585
0.0184679
0.015689
0.00955473
0.00950035
0.0120271
0.00842456
0.00754616
0.00679936
0.0066278
0.0067232
0.00697704
0.0071709
0.00739603
0.00762611
0.00757964
0.00739433
0.00706135
0.00668671
0.00628417
0.00585949
0.00543853
0.00503214
0.00467047
0.00433469
0.00549281
0.00387578
0.00370243
0.00363367
0.00362322
0.00365948
0.00371068
0.00378686
0.00392223
0.00405807
0.0042473
0.00444072
0.00459797
0.00475261
0.00486995
0.00490595
0.00492257
0.00484986
0.00461732
0.00435807
0.00407971
0.00378924
0.00340665
0.00397398
0.00254713
0.00198494
0.00154296
0.00120093
0.000909616
0.000700983
0.000552937
0.000442757
0.000373518
0.000318315
0.000255272
0.000212348
0.000286924
0.000343211
0.000306377
0.000316295
0.000351353
0.0003453
0.000399476
0.00057579
0.000779758
0.00133174
0.00323704
0.00752097
0.010618
0.00663641
0.0120572
0.00960974
0.00937617
0.0118834
0.00665686
0.00937758
0.00498576
0.00720156
0.00751025
0.00912197
0.00554124
0.00568492
0.00969103
0.00590585
0.00686157
0.00618112
0.00602116
0.0059421
0.00646379
0.00698642
0.00851299
0.0105189
0.0104709
0.0168954
0.0172566
0.0111418
0.0146018
0.00999447
0.0091963
0.0078884
0.0076781
0.00660903
0.00599603
0.00565954
0.00553303
0.00559827
0.00747365
0.00582406
0.00601976
0.00736479
0.00747115
0.00615108
0.00597704
0.00570058
0.00720727
0.00512651
0.00487486
0.00456707
0.00428873
0.00400849
0.0037522
0.00355329
0.00341479
0.00337506
0.00337786
0.00342084
0.0045202
0.00355562
0.0037138
0.003889
0.00403705
0.00422317
0.00437068
0.00447411
0.00456377
0.00460178
0.00675881
0.00670708
0.00435784
0.00415557
0.00390457
0.00363031
0.00327767
0.0028745
0.00240413
0.00187834
0.00145007
0.00113308
0.000858666
0.000668552
0.00052659
0.00042661
0.000360152
0.000306704
0.000247655
0.000204053
0.000312632
0.000382376
0.00034773
0.000317431
0.000288878
0.000225838
0.000228017
0.000345177
0.000553061
0.000815321
0.0017676
0.00565406
0.00779181
0.0102333
0.0113157
0.0128057
0.0121658
0.0100209
0.00907846
0.00732037
0.00612672
0.00539996
0.00419546
0.00690425
0.0078842
0.00535309
0.00768149
0.00543338
0.00515686
0.00453382
0.00482086
0.00557744
0.00588537
0.00614131
0.0064162
0.00709608
0.00795417
0.0139375
0.0136915
0.0122037
0.00962754
0.00639179
0.007771
0.00739745
0.0062221
0.00710759
0.0051063
0.00492716
0.00482976
0.00483839
0.006892
0.00503016
0.00518725
0.00528211
0.00532995
0.00532281
0.00519006
0.0050401
0.00486702
0.00593338
0.00443942
0.00414109
0.00388759
0.00363273
0.00336741
0.00317393
0.00307082
0.0030495
0.00308369
0.00317447
0.00326509
0.00335767
0.00349497
0.00366566
0.00386248
0.00401672
0.00413712
0.004257
0.00432922
0.00434452
0.00434078
0.00633814
0.00414663
0.00394263
0.00375048
0.00343907
0.00312276
0.00272669
0.00224746
0.00176619
0.00136838
0.0010654
0.000814565
0.000635316
0.00049987
0.000410467
0.000346873
0.000294907
0.000239564
0.000199632
0.000344575
0.000393559
0.00037628
0.000309787
0.000220031
0.000121595
9.88384e-05
0.000167006
0.000326837
0.000502607
0.000837797
0.00203509
0.00451821
0.00660514
0.00860906
0.00943826
0.00539109
0.00469097
0.00645794
0.00361494
0.00399161
0.00365669
0.00416539
0.00483236
0.00532528
0.00487811
0.00513565
0.00543923
0.00507294
0.00442179
0.004096
0.00473682
0.00508821
0.00608162
0.00719408
0.00740147
0.00712927
0.0092588
0.00690047
0.00906235
0.00625177
0.00674443
0.00703065
0.00753324
0.00528559
0.00478456
0.00546373
0.00438257
0.00538866
0.00438493
0.00586748
0.00454112
0.00465651
0.00473153
0.00618486
0.00475771
0.00467883
0.00455684
0.00439264
0.0042039
0.00397868
0.00368334
0.00343515
0.00388697
0.0029847
0.00281581
0.0027383
0.0027568
0.00281389
0.00290306
0.00298244
0.00311392
0.00327795
0.00346785
0.00363531
0.00383535
0.00395307
0.00402179
0.00410263
0.00412848
0.00412791
0.00407305
0.00560419
0.00379561
0.00356483
0.00329345
0.00293313
0.00256651
0.00210952
0.00164621
0.00128623
0.000995542
0.000769771
0.000601677
0.000476976
0.000393504
0.000333459
0.000283067
0.000232573
0.00019476
0.000378219
0.000386443
0.000305671
0.000223867
0.000180525
9.80902e-05
6.27825e-05
8.44691e-05
0.00019207
0.000322762
0.000449752
0.000856583
0.00200828
0.00349168
0.00517341
0.00426186
0.00535785
0.00436828
0.00336823
0.00310205
0.00235936
0.00227731
0.00260284
0.00296228
0.00363227
0.00429478
0.0047769
0.00484074
0.00395503
0.00354258
0.00317551
0.00341843
0.00392241
0.00491204
0.00676165
0.00798516
0.0087119
0.00800267
0.00769601
0.00759163
0.00637992
0.00767272
0.00576349
0.00601522
0.00524131
0.00413822
0.00390145
0.00379821
0.00384244
0.00478723
0.00403416
0.00411906
0.00420786
0.00428772
0.00431244
0.0042896
0.00420071
0.00406664
0.00389475
0.00369566
0.00347723
0.00321552
0.00297917
0.00279708
0.00259257
0.00246707
0.00241767
0.00244613
0.00252299
0.00264206
0.00274976
0.00286926
0.00302175
0.00324317
0.00344508
0.00359942
0.0037573
0.00386267
0.00391466
0.003919
0.00389791
0.00384299
0.00377846
0.00360151
0.00339621
0.00310947
0.00276721
0.00238342
0.00197692
0.00154052
0.00120425
0.000934775
0.000726195
0.00056765
0.000455271
0.000376823
0.000319483
0.000271233
0.000226055
0.000189104
0.000398914
0.000338436
0.000245717
0.000220553
0.000124716
5.01868e-05
3.4109e-05
5.82554e-05
0.000122853
0.000224187
0.000296894
0.000412782
0.00083686
0.00164781
0.00251622
0.00257011
0.00237416
0.00204906
0.00215204
0.00164545
0.00135404
0.00140919
0.00167383
0.00212944
0.00272951
0.00327454
0.0036769
0.00404699
0.00352878
0.00293685
0.00208236
0.00257925
0.00301828
0.00396031
0.00558009
0.00687897
0.00789286
0.00804597
0.00706708
0.00619691
0.00556834
0.00513105
0.0048032
0.00426611
0.00376134
0.00338335
0.00319416
0.00351799
0.00325416
0.00342455
0.00347254
0.00356872
0.00367635
0.0037625
0.00378142
0.00375976
0.00366213
0.0035302
0.00388874
0.00316883
0.00297994
0.00319549
0.00255851
0.00239704
0.00222813
0.00213537
0.002114
0.00217076
0.00225998
0.00237679
0.00248963
0.00262703
0.00280198
0.00299992
0.00320923
0.00341318
0.00353858
0.00364344
0.00373159
0.00375469
0.00375016
0.00369478
0.00357752
0.00341876
0.00321638
0.00290766
0.00259687
0.00221664
0.00183258
0.00144026
0.0011209
0.000876931
0.000681821
0.000536201
0.000433051
0.000359971
0.000305472
0.000260671
0.000218958
0.000183532
0.000390379
0.000208027
0.000184148
0.000116203
6.99297e-05
1.74174e-05
1.59862e-05
4.03179e-05
9.00851e-05
0.000165725
0.00022189
0.000258062
0.000385857
0.00064973
0.00107132
0.00117377
0.00106606
0.000940735
0.000869372
0.000721598
0.000705179
0.000786578
0.000939456
0.001145
0.00150019
0.00217835
0.00238369
0.00297811
0.00252789
0.00179432
0.00176877
0.00180186
0.00236452
0.00323144
0.00447814
0.00569595
0.00645343
0.00727354
0.00579498
0.00512003
0.0045813
0.00422044
0.00380797
0.00334173
0.00317051
0.00266106
0.00252993
0.00259648
0.00266703
0.00282366
0.0028759
0.00298073
0.00309767
0.00319629
0.00321564
0.00319783
0.00310899
0.00298738
0.00286296
0.00267385
0.00252113
0.00235259
0.00215666
0.0020252
0.00190144
0.00184022
0.00183798
0.00190072
0.00199865
0.00213107
0.00225836
0.00237906
0.00255679
0.00277303
0.00296931
0.00316756
0.00333365
0.00345054
0.00351892
0.00353115
0.00353895
0.00348038
0.00339425
0.00323212
0.0029911
0.00273565
0.00240259
0.00206159
0.00169272
0.00133929
0.0010445
0.000820884
0.000638107
0.000507581
0.000411581
0.000342649
0.000291115
0.00025091
0.000211151
0.000178343
0.000356076
0.000175401
9.15852e-05
6.51652e-05
3.42081e-05
1.14683e-05
8.70029e-06
2.85277e-05
7.10624e-05
0.000129695
0.00017717
0.000191337
0.000223537
0.000299173
0.0003856
0.000405492
0.000381244
0.000377901