/*--------------------------------*- C++ -*----------------------------------*\
  =========                 |
  \\      /  F ield         | OpenFOAM: The Open Source CFD Toolbox
   \\    /   O peration     | Website:  https://openfoam.org
    \\  /    A nd           | Version:  6
     \\/     M anipulation  |
\*---------------------------------------------------------------------------*/
FoamFile
{
    version     2.0;
    format      ascii;
    class       volScalarField;
    location    "0.1";
    object      C2H5;
}
// * * * * * * * * * * * * * * * * * * * * * * * * * * * * * * * * * * * * * //

dimensions      [0 0 0 0 0 0 0];

internalField   nonuniform List<scalar> 
8000
(
2.26748e-08
6.38951e-07
1.807e-06
3.22551e-06
3.75003e-06
3.50156e-06
2.59259e-06
1.62108e-06
8.31627e-07
3.1566e-07
9.58661e-08
5.99022e-08
1.53574e-07
9.01353e-07
8.65039e-07
9.21258e-07
1.82568e-06
4.31131e-06
1.90124e-06
2.17445e-06
2.20847e-06
1.74581e-06
1.39267e-06
1.89926e-06
2.21916e-06
2.61842e-06
2.79997e-06
2.63944e-06
2.57337e-06
1.20633e-05
4.39987e-06
1.66556e-06
1.33871e-06
1.0535e-06
9.44913e-07
9.22468e-07
9.24244e-07
9.44669e-07
1.09468e-06
1.26346e-06
9.54297e-07
7.11692e-07
6.23818e-07
6.70665e-07
8.22061e-07
1.05131e-06
1.29853e-06
1.6314e-06
2.15114e-06
1.34724e-05
4.14541e-06
3.52156e-06
3.06306e-06
3.05415e-06
3.06412e-06
3.09362e-06
3.11444e-06
3.0941e-06
3.03159e-06
2.93949e-06
2.23311e-06
2.08741e-06
1.22147e-06
1.38092e-06
9.4047e-07
1.62195e-07
6.72096e-07
4.39554e-07
4.49716e-07
4.52091e-07
7.7656e-07
4.49451e-07
4.51071e-07
9.27848e-07
9.26208e-07
4.49752e-07
4.49546e-07
4.5107e-07
4.51709e-07
4.52847e-07
4.56477e-07
4.57551e-07
4.55439e-07
9.27901e-07
8.81967e-07
7.98753e-07
6.78237e-07
6.07112e-07
1.45146e-06
4.11612e-07
3.15477e-07
2.50552e-07
2.12177e-07
1.81505e-07
1.23945e-07
9.80702e-08
8.31462e-08
7.27102e-08
6.66799e-08
4.66379e-08
2.09639e-08
6.995e-07
1.87436e-06
3.2859e-06
4.17074e-06
3.48013e-06
2.48837e-06
1.55953e-06
7.81912e-07
2.79321e-07
8.23044e-08
7.09496e-08
2.60004e-07
1.60075e-06
1.60292e-06
1.20136e-06
1.74643e-06
1.91052e-06
1.99314e-06
2.01815e-06
2.09639e-06
1.70069e-06
1.41443e-06
1.95721e-06
2.25993e-06
2.75053e-06
2.80753e-06
2.64383e-06
2.4552e-06
2.79275e-06
1.70741e-06
1.50424e-06
1.266e-06
1.04978e-06
9.86693e-07
9.78902e-07
9.79159e-07
9.96182e-07
1.17562e-06
4.48856e-06
1.11497e-06
7.64536e-07
6.61037e-07
7.07245e-07
8.56753e-07
1.08726e-06
1.32201e-06
1.63847e-06
2.14452e-06
2.33208e-06
3.00633e-06
3.05445e-06
3.06578e-06
3.0639e-06
3.06951e-06
3.09022e-06
3.10077e-06
3.07415e-06
3.00926e-06
2.92383e-06
2.22599e-06
2.06973e-06
1.19888e-06
1.45369e-06
6.64033e-07
1.61125e-07
6.70947e-07
4.39262e-07
4.49346e-07
4.51876e-07
4.53151e-07
4.48325e-07
4.50601e-07
9.26309e-07
9.24922e-07
4.49441e-07
4.49173e-07
4.50765e-07
4.51651e-07
4.52458e-07
4.56168e-07
4.57293e-07
4.5486e-07
9.27123e-07
8.8202e-07
7.97485e-07
6.76887e-07
6.06147e-07
5.46842e-07
4.10427e-07
3.15046e-07
2.50113e-07
2.11844e-07
1.81445e-07
1.23707e-07
9.79313e-08
8.30428e-08
7.26269e-08
6.67286e-08
4.65769e-08
3.1429e-08
9.88419e-07
4.7582e-06
4.04262e-06
3.45642e-06
2.87881e-06
2.0225e-06
4.314e-06
4.3429e-06
2.97063e-07
2.4249e-06
7.9617e-08
3.92901e-07
2.14442e-06
2.20703e-06
1.96687e-06
1.48263e-06
1.83307e-06
1.88114e-06
4.09808e-06
1.89917e-06
1.6348e-06
1.4753e-06
2.07166e-06
2.32938e-06
3.09045e-06
2.94588e-06
2.65327e-06
2.30732e-06
1.91533e-06
1.58042e-06
1.38632e-06
1.2104e-06
1.07343e-06
1.10599e-06
1.15936e-06
1.13219e-06
1.1266e-06
1.13468e-06
1.15e-06
9.37858e-07
7.80146e-07
7.22906e-07
7.76367e-07
9.26526e-07
1.16314e-06
1.37401e-06
1.73313e-06
2.13478e-06
2.32651e-06
2.33957e-06
3.07177e-06
3.1045e-06
3.08679e-06
3.07416e-06
3.07619e-06
3.07141e-06
3.03361e-06
2.96552e-06
2.59322e-06
2.20959e-06
2.02627e-06
1.14968e-06
1.25281e-06
6.64489e-07
1.58873e-07
4.33349e-07
4.38705e-07
4.48421e-07
4.5127e-07
4.51975e-07
4.46172e-07
1.62659e-06
9.22935e-07
9.22144e-07
1.22547e-06
4.48366e-07
4.50087e-07
4.51391e-07
6.76262e-07
4.55496e-07
4.56729e-07
4.53557e-07
9.25507e-07
1.59775e-06
7.94656e-07
6.74028e-07
6.04109e-07
5.3329e-07
4.08201e-07
3.14112e-07
2.49152e-07
2.53283e-06
2.7393e-06
1.2318e-07
9.76293e-08
8.28155e-08
7.24432e-08
4.39813e-06
4.64411e-08
6.66125e-08
1.36856e-06
2.45512e-06
3.04032e-06
2.76617e-06
2.22605e-06
1.50413e-06
8.9871e-07
3.8645e-07
1.01876e-07
2.51123e-08
3.38582e-08
2.09401e-07
1.17992e-05
4.47963e-06
2.26206e-06
1.24763e-06
1.46105e-06
2.11692e-06
2.0288e-06
1.96405e-06
1.54527e-06
1.55343e-06
2.05159e-06
2.39301e-06
4.04985e-06
3.22753e-06
2.66264e-06
2.21837e-06
1.81679e-06
1.53183e-06
1.34372e-06
1.20759e-06
1.11918e-06
1.2655e-06
4.32664e-06
1.38296e-06
4.46576e-06
1.25433e-06
1.14739e-06
9.85254e-07
8.78949e-07
8.2288e-07
8.68345e-07
1.00107e-06
1.21007e-06
1.50917e-06
1.82442e-06
2.12262e-06
2.1471e-06
2.32021e-06
3.09502e-06
4.33084e-06
3.09808e-06
3.05839e-06
3.04335e-06
3.02786e-06
2.98245e-06
2.91421e-06
2.24328e-06
2.1807e-06
1.43121e-06
1.07635e-06
1.01913e-06
6.59874e-07
1.5713e-07
4.31789e-07
4.38183e-07
4.46911e-07
4.49413e-07
1.13945e-06
9.25101e-07
9.25554e-07
9.17749e-07
9.18039e-07
4.46682e-07
4.47163e-07
4.49077e-07
4.50944e-07
4.52624e-07
4.5449e-07
4.55878e-07
4.51498e-07
9.23282e-07
8.70989e-07
7.90206e-07
6.69737e-07
6.0112e-07
5.23087e-07
4.05139e-07
3.12709e-07
2.47717e-07
2.07237e-07
1.74365e-07
1.2235e-07
9.71765e-08
8.2472e-08
7.21635e-08
6.42283e-08
4.62223e-08
5.06604e-08
1.91998e-06
4.21663e-06
3.49118e-06
2.47451e-06
1.74409e-06
1.03917e-06
4.7938e-07
1.54103e-07
2.5919e-08
1.37743e-06
1.29568e-06
1.43999e-06
1.97353e-06
2.15938e-06
1.57805e-06
9.30609e-07
1.27605e-06
2.13761e-06
2.19872e-06
1.87137e-06
1.46989e-06
1.74391e-06
2.23492e-06
2.52631e-06
3.07806e-06
2.93198e-06
2.61687e-06
2.13982e-06
1.83728e-06
1.55506e-06
1.37844e-06
1.26064e-06
1.166e-06
1.1868e-06
1.21869e-06
1.20185e-06
1.22856e-06
1.27854e-06
5.1024e-06
1.11993e-06
1.02461e-06
9.5068e-07
9.49973e-07
1.12657e-06
1.32955e-06
1.54314e-06
1.81814e-06
2.10324e-06
2.27488e-06
2.29257e-06
3.04221e-06
3.52108e-06
3.04002e-06
3.00911e-06
2.99231e-06
2.97989e-06
2.92979e-06
2.57287e-06
2.22078e-06
2.12983e-06
1.34048e-06
9.76441e-07
8.36817e-07
4.15126e-07
6.58384e-07
4.30996e-07
4.37683e-07
6.75282e-07
4.47041e-07
4.4789e-07
9.17234e-07
9.15192e-07
9.11195e-07
9.12763e-07
4.4292e-07
4.45539e-07
4.47703e-07
4.49569e-07
4.51855e-07
4.53173e-07
1.02043e-06
4.48615e-07
1.7676e-06
8.60771e-07
7.84485e-07
6.64049e-07
5.97286e-07
5.12299e-07
4.01324e-07
3.10857e-07
2.45842e-07
2.03808e-07
1.69039e-07
1.21299e-07
9.65755e-08
8.20149e-08
7.17919e-08
6.22107e-08
4.59506e-08
2.3736e-08
9.05964e-06
3.61491e-06
2.72739e-06
1.85647e-06
1.25393e-06
6.305e-07
3.32982e-06
5.46519e-08
8.37856e-09
4.61944e-09
1.17663e-08
5.23441e-08
1.22548e-06
1.45129e-06
5.00148e-06
6.79604e-06
6.2531e-06
8.64846e-06
2.18205e-06
1.70307e-06
1.49682e-06
4.69497e-06
3.71958e-06
2.56963e-06
2.9223e-06
2.78933e-06
2.61548e-06
2.26805e-06
1.88981e-06
1.63459e-06
1.48003e-06
1.29056e-06
1.26223e-06
1.21961e-06
1.19431e-06
1.18742e-06
1.21724e-06
1.26811e-06
1.20824e-06
1.12344e-06
1.15419e-06
3.1246e-06
1.08356e-06
1.1962e-06
1.50634e-06
1.81197e-06
1.88156e-06
2.06641e-06
3.90768e-06
2.25163e-06
2.96843e-06
4.16161e-06
2.9793e-06
2.94566e-06
2.93186e-06
2.93429e-06
2.89142e-06
2.22685e-06
2.18121e-06
2.03774e-06
1.22005e-06
8.58077e-07
8.28833e-07
4.17861e-07
6.52185e-07
4.30899e-07
4.36079e-07
4.43657e-07
4.44216e-07
4.44573e-07
9.07877e-07
9.04535e-07
9.01933e-07
9.06413e-07
4.38588e-07
4.42518e-07
4.45936e-07
4.47893e-07
4.50126e-07
4.51559e-07
1.09722e-06
9.29277e-07
9.06046e-07
8.51846e-07
7.77597e-07
6.57014e-07
5.92384e-07
5.02056e-07
3.96847e-07
3.0857e-07
2.43562e-07
2.00583e-07
3.00343e-06
1.2006e-07
9.58629e-08
8.14405e-08
7.13371e-08
6.05557e-08
4.56346e-08
6.73374e-09
1.56167e-06
2.37472e-06
5.11384e-06
1.24474e-06
7.97231e-07
3.98253e-06
3.95329e-06
1.8269e-06
9.53901e-09
9.04459e-09
3.3825e-08
1.85445e-06
6.34317e-07
8.06251e-07
7.6921e-07
1.14519e-06
1.66092e-06
2.11905e-06
2.08508e-06
7.82887e-06
1.64447e-06
2.03065e-06
2.31677e-06
2.56359e-06
4.09864e-06
4.12567e-06
2.61747e-06
4.22807e-06
2.03512e-06
1.75957e-06
1.5408e-06
1.46686e-06
1.34487e-06
1.27365e-06
1.22258e-06
1.276e-06
1.20778e-06
1.24571e-06
1.33071e-06
3.22688e-06
1.16301e-06
1.1075e-06
1.11594e-06
1.28989e-06
1.53393e-06
4.06077e-06
1.9563e-06
2.00997e-06
2.00614e-06
2.1848e-06
2.39549e-06
4.09787e-06
2.90457e-06
2.87805e-06
2.8743e-06
2.89236e-06
4.02102e-06
2.19273e-06
2.11587e-06
1.873e-06
1.07386e-06
1.33904e-06
9.04791e-07
1.40833e-07
4.17983e-07
4.29704e-07
4.3468e-07
4.40251e-07
4.40795e-07
4.39262e-07
8.95578e-07
8.90478e-07
8.90403e-07
8.99165e-07
9.03118e-07
4.38663e-07
4.4391e-07
4.46038e-07
1.02451e-06
4.49555e-07
4.50279e-07
9.20811e-07
8.91883e-07
8.4359e-07
7.69612e-07
6.48712e-07
1.39528e-06
4.90528e-07
3.903e-07
3.05864e-07
2.40919e-07
1.97321e-07
1.59712e-07
1.18626e-07
9.50133e-08
8.07575e-08
7.08062e-08
5.91633e-08
4.52768e-08
7.46005e-07
4.58164e-06
5.48054e-06
1.21968e-06
6.82936e-07
3.60882e-07
3.78995e-06
1.00462e-07
1.88066e-08
1.378e-08
1.23097e-06
2.01928e-06
4.08265e-07
3.59742e-06
6.77698e-07
8.82226e-07
1.4196e-06
1.93776e-06
2.13378e-06
1.88379e-06
1.46357e-06
4.52241e-06
2.22908e-06
3.8893e-06
2.78943e-06
2.88e-06
2.75687e-06
2.61413e-06
2.4159e-06
2.08606e-06
4.22798e-06
1.72763e-06
1.59963e-06
1.48792e-06
1.40436e-06
3.51564e-06
1.36616e-06
1.35158e-06
1.30592e-06
1.29966e-06
1.20544e-06
1.17448e-06
1.16999e-06
1.20352e-06
1.35509e-06
1.52914e-06
1.75801e-06
1.80647e-06
1.9424e-06
1.92568e-06
2.11851e-06
2.16143e-06
4.04118e-06
2.55326e-06
2.54175e-06
2.54609e-06
2.56003e-06
2.21604e-06
2.13824e-06
1.48896e-06
1.22013e-06
1.67466e-06
6.97311e-07
6.2799e-07
1.48298e-07
4.15711e-07
4.27573e-07
4.32304e-07
4.35834e-07
1.47575e-06
1.75227e-06
8.80086e-07
8.75463e-07
8.76233e-07
1.75024e-06
8.93884e-07
9.02013e-07
4.4154e-07
4.43928e-07
1.11111e-06
4.47296e-07
4.47706e-07
9.11464e-07
8.78489e-07
1.52673e-06
7.60687e-07
6.39218e-07
5.71748e-07
4.78076e-07
3.83154e-07
3.02024e-07
2.37943e-07
1.93992e-07
1.54792e-07
1.17042e-07
9.40324e-08
7.99627e-08
7.01917e-08
5.79599e-08
4.48768e-08
5.5444e-10
4.38519e-07
4.40751e-06
3.79009e-06
2.70427e-07
1.01349e-07
6.56282e-08
2.28444e-08
1.80725e-08
4.33906e-08
1.80924e-06
3.35797e-06
5.89042e-06
1.22686e-06
5.73331e-06
6.06172e-06
9.03801e-06
2.18489e-06
1.07728e-05
1.67001e-06
1.4012e-06
1.68529e-06
2.04861e-06
2.30965e-06
4.10584e-06
4.00129e-06
2.73613e-06
2.64085e-06
4.13669e-06
2.22294e-06
2.02901e-06
1.93778e-06
1.89363e-06
1.80975e-06
1.70626e-06
1.56561e-06
3.85372e-06
1.46499e-06
1.47787e-06
3.77496e-06
1.2805e-06
1.20055e-06
1.21438e-06
1.298e-06
1.41005e-06
1.51997e-06
1.74829e-06
1.75885e-06
1.87497e-06
1.85567e-06
1.8606e-06
2.10359e-06
2.15701e-06
2.19286e-06
3.99298e-06
2.20804e-06
2.22531e-06
2.16387e-06
2.03793e-06
1.33901e-06
1.96032e-06
1.74313e-06
8.18932e-07
1.40524e-07
6.22658e-07
4.15005e-07
4.25009e-07
4.26824e-07
1.19875e-06
4.28464e-07
8.81095e-07
8.62962e-07
8.58915e-07
8.60075e-07
8.72928e-07
8.8255e-07
8.92553e-07
4.37773e-07
1.24359e-06
4.43058e-07
1.41658e-06
1.60305e-06
8.99716e-07
8.65204e-07
1.52146e-06
7.50007e-07
6.2859e-07
5.57345e-07
4.65517e-07
3.75982e-07
2.97448e-07
2.34675e-07
1.89354e-07
1.50505e-07
1.15319e-07
9.29202e-08
7.9076e-08
6.95279e-08
5.68932e-08
4.44331e-08
4.73443e-11
1.17356e-07
3.38097e-07
3.02383e-06
6.42855e-08
1.88597e-08
1.34458e-06
1.70012e-08
1.15117e-06
2.34388e-06
3.20716e-07
5.30961e-06
2.10426e-06
9.48031e-06
1.87899e-06
1.9035e-06
2.19046e-06
2.2452e-06
9.86463e-06
6.35388e-06
3.7001e-06
1.74109e-06
2.00352e-06
2.24211e-06
2.58359e-06
4.03074e-06
2.70139e-06
2.61641e-06
2.51475e-06
2.34333e-06
2.27939e-06
2.23534e-06
2.47947e-06
4.27356e-06
4.33321e-06
1.99886e-06
1.83854e-06
1.70756e-06
1.64502e-06
1.57977e-06
1.39532e-06
1.32337e-06
1.33374e-06
1.39581e-06
1.47518e-06
1.58355e-06
1.71412e-06
1.7096e-06
1.8133e-06
1.79396e-06
1.79314e-06
1.80095e-06
2.10727e-06
2.15617e-06
2.16669e-06
2.175e-06
4.01568e-06
4.14503e-06
1.38767e-06
1.16253e-06
9.01527e-07
9.50801e-07
5.99362e-07
1.44228e-07
3.38481e-07
6.15538e-07
4.19598e-07
4.21128e-07
1.5509e-06
8.66617e-07
8.57031e-07
8.44264e-07
8.37621e-07
8.42314e-07
8.5461e-07
8.68763e-07
1.80165e-06
1.68854e-06
4.38568e-07
4.39821e-07
4.40094e-07
9.08936e-07
8.84368e-07
8.51294e-07
8.0359e-07
6.89515e-07
6.16949e-07
5.43002e-07
4.52868e-07
3.68311e-07
2.92438e-07
2.31413e-07
1.84751e-07
1.46423e-07
1.13328e-07
9.16796e-08
7.81153e-08
6.87729e-08
5.59404e-08
4.39424e-08
3.15546e-12
9.57236e-07
1.95327e-06
1.67531e-06
1.51756e-08
1.05308e-08
2.03589e-08
1.17864e-06
1.68922e-06
2.67434e-06
4.87451e-06
8.94178e-06
7.72326e-06
5.78831e-06
2.20089e-06
2.22137e-06
1.2398e-05
2.1034e-06
1.65991e-06
1.50299e-06
1.57095e-06
1.82662e-06
2.06053e-06
2.20392e-06
2.40449e-06
2.74426e-06
2.66266e-06
2.58734e-06
2.53102e-06
2.45843e-06
2.41561e-06
2.41416e-06
2.50336e-06
2.44933e-06
2.37621e-06
4.2592e-06
2.26665e-06
4.30963e-06
2.01041e-06
4.30929e-06
1.57334e-06
1.522e-06
1.51462e-06
1.49895e-06
1.5781e-06
1.64189e-06
1.67741e-06
1.66049e-06
3.89192e-06
1.73918e-06
1.73136e-06
1.72958e-06
1.7263e-06
2.12068e-06
4.01672e-06
2.1096e-06
4.23602e-06
1.40456e-06
1.20582e-06
9.73603e-07
1.31817e-06
4.46131e-07
3.81192e-07
5.99028e-07
3.97002e-07
4.09308e-07
4.13363e-07
4.12076e-07
8.47645e-07
1.75947e-06
8.34277e-07
8.18982e-07
8.14405e-07
8.211e-07
8.36141e-07
8.51993e-07
8.68859e-07
8.828e-07
4.33748e-07
1.67943e-06
9.0001e-07
8.9613e-07
8.68452e-07
8.34702e-07
7.84966e-07
6.77289e-07
6.04548e-07
5.28325e-07
4.40942e-07
1.87083e-06
2.87105e-07
2.27944e-07
1.8031e-07
1.42497e-07
1.11238e-07
9.03702e-08
7.70396e-08
6.79333e-08
5.46578e-08
4.34215e-08
1.25224e-07
8.92639e-07
1.32637e-06
1.43666e-06
3.86024e-08
1.39945e-06
1.27813e-07
2.2636e-06
3.13012e-06
3.90894e-06
6.03625e-06
1.84533e-06
2.16522e-06
4.2508e-06
2.13216e-06
2.29678e-06
2.30574e-06
1.96296e-06
1.53757e-06
4.19817e-06
1.68003e-06
1.84915e-06
3.6157e-06
2.2009e-06
2.34794e-06
4.04419e-06
3.9666e-06
2.55259e-06
2.62385e-06
4.02997e-06
2.56307e-06
2.52902e-06
2.49714e-06
2.45357e-06
2.39915e-06
2.54189e-06
2.40415e-06
2.43703e-06
4.25893e-06
1.99726e-06
1.82498e-06
1.67084e-06
1.63456e-06
1.69182e-06
1.72349e-06
1.67916e-06
1.58674e-06
1.60931e-06
1.61644e-06
1.68229e-06
3.98921e-06
4.01201e-06
4.03186e-06
1.62021e-06
1.55329e-06
1.48136e-06
1.36692e-06
1.21348e-06
1.00817e-06
1.38266e-06
8.04064e-07
1.62818e-07
1.37448e-07
3.82761e-07
3.97119e-07
4.03137e-07
1.59464e-06
1.76687e-06
8.20897e-07
8.18798e-07
8.07507e-07
7.93123e-07
7.90499e-07
7.99117e-07
8.1452e-07
8.34516e-07
8.52766e-07
8.69554e-07
8.84887e-07
8.85712e-07
8.87355e-07
8.82951e-07
8.52369e-07
8.17763e-07
7.64473e-07
6.64218e-07
5.91478e-07
5.13537e-07
4.29285e-07
3.47463e-07
2.81958e-07
2.61216e-06
1.76109e-07
1.3868e-07
1.09133e-07
8.89887e-08
7.58653e-08
6.70148e-08
5.35885e-08
4.28591e-08
1.3193e-07
6.34845e-10
7.0253e-09
7.69934e-08
2.59021e-07
2.43386e-06
5.76356e-07
4.21468e-06
1.17153e-06
1.52558e-06
1.81092e-06
2.30487e-06
2.25218e-06
2.23923e-06
2.17821e-06
2.34149e-06
2.28749e-06
1.84413e-06
1.43696e-06
1.54817e-06
1.77354e-06
2.0091e-06
3.97758e-06
2.19131e-06
2.29536e-06
4.08215e-06
2.55387e-06
2.49536e-06
3.93617e-06
2.68079e-06
3.96976e-06
2.71223e-06
2.80148e-06
2.75006e-06
2.5698e-06
2.51995e-06
2.58938e-06
2.53965e-06
2.29423e-06
2.11984e-06
4.17787e-06
4.18378e-06
1.8162e-06
1.7362e-06
4.00914e-06
1.64897e-06
1.54023e-06
4.05768e-06
1.51051e-06
1.60375e-06
4.05996e-06
1.52555e-06
1.48706e-06
1.45451e-06
3.98972e-06
3.12824e-06
1.17145e-06
1.77529e-06
1.50082e-06
8.94453e-07
5.70185e-07
1.77022e-07
3.65434e-07
3.84657e-07
9.93478e-07
3.95044e-07
1.749e-06
7.83047e-07
7.92158e-07
7.88798e-07
7.78056e-07
7.66315e-07
7.65405e-07
7.76413e-07
7.92834e-07
8.14148e-07
8.34192e-07
8.53114e-07
1.7792e-06
8.72246e-07
8.74163e-07
1.71978e-06
8.3519e-07
8.00314e-07
7.4409e-07
6.49483e-07
5.78019e-07
4.99035e-07
4.17716e-07
3.3623e-07
2.27741e-06
2.17632e-07
1.71849e-07
1.35006e-07
1.06918e-07
8.74993e-08
7.46212e-08
6.54998e-08
5.25333e-08
4.2274e-08
1.21592e-09
6.65361e-07
9.91843e-08
3.26853e-06
7.06743e-06
1.50232e-06
1.63856e-06
8.69553e-06
1.03898e-05
9.85372e-06
2.52273e-06
1.02816e-05
2.34146e-06
2.10973e-06
8.68805e-06
2.39376e-06
2.21387e-06
7.43431e-06
3.11826e-06
4.36419e-06
1.76452e-06
3.56791e-06
2.30958e-06
2.22605e-06
2.21596e-06
2.28984e-06
2.35575e-06
2.40131e-06
2.39779e-06
2.48038e-06
2.47748e-06
2.64691e-06
2.7421e-06
3.9636e-06
2.63611e-06
2.5847e-06
2.54828e-06
2.50633e-06
4.04752e-06
2.09977e-06
2.02175e-06
1.86013e-06
1.78284e-06
1.77569e-06
3.9655e-06
1.60817e-06
1.55081e-06
1.51825e-06
1.39094e-06
1.43236e-06
1.41544e-06
1.42549e-06
1.29196e-06
3.04698e-06
2.98463e-06
1.086e-06
9.73274e-07
2.19914e-06
9.2469e-07
6.01487e-07
1.25529e-07
1.28778e-07
4.76337e-07
3.84786e-07
3.89241e-07
7.48286e-07
7.54214e-07
7.49511e-07
7.58214e-07
7.5676e-07
7.47031e-07
7.3692e-07
7.37763e-07
7.513e-07
7.70945e-07
7.92702e-07
8.14764e-07
8.34525e-07
8.57052e-07
8.56263e-07
8.57696e-07
8.50072e-07
8.15703e-07
1.54933e-06
6.76954e-07
1.38992e-06
1.47569e-06
4.84185e-07
4.06578e-07
3.25084e-07
2.66924e-07
2.11301e-07
1.67507e-07
1.31662e-07
1.04621e-07
8.59067e-08
7.33278e-08
6.39767e-08
5.1471e-08
4.16962e-08
2.13735e-06
9.4111e-07
7.64268e-07
1.08811e-05
3.31033e-06
2.14086e-06
1.14675e-05
2.32877e-06
8.72007e-06
2.48154e-06
8.29138e-06
8.8442e-06
2.35098e-06
2.47595e-06
5.57216e-06
2.37196e-06
2.05217e-06
4.14199e-06
1.44089e-06
4.64013e-06
1.859e-06
1.97461e-06
3.94524e-06
2.02541e-06
2.12584e-06
2.11095e-06
4.05165e-06
2.2259e-06
2.20225e-06
2.28129e-06
2.37968e-06
2.35644e-06
3.99541e-06
2.47893e-06
3.97559e-06
2.51801e-06
2.48965e-06
3.94858e-06
3.97189e-06
2.06e-06
1.98777e-06
1.90588e-06
1.8168e-06
1.73093e-06
1.58014e-06
1.50421e-06
1.44638e-06
1.42703e-06
1.49275e-06
3.12962e-06
1.78292e-06
1.43272e-06
1.48031e-06
1.53562e-06
1.55763e-06
2.4781e-06
1.36481e-06
1.09306e-06
6.31222e-07
1.90362e-07
5.57518e-07
3.5982e-07
3.7186e-07
3.81043e-07
7.26924e-07
7.18248e-07
7.17257e-07
7.14632e-07
1.64234e-06
7.23357e-07
6.67168e-07
6.60682e-07
6.63859e-07
7.24869e-07
7.47393e-07
7.70697e-07
7.92716e-07
8.14322e-07
1.73627e-06
8.38621e-07
8.40759e-07
8.31673e-07
7.96116e-07
7.61183e-07
6.5706e-07
6.1398e-07
5.42554e-07
4.65849e-07
3.95876e-07
3.14566e-07
2.47987e-06
2.05485e-07
1.62839e-07
1.28317e-07
1.02291e-07
8.42235e-08
7.19278e-08
6.24218e-08
5.04043e-08
4.10673e-08
1.48457e-06
8.20711e-06
3.15945e-06
1.07275e-05
1.89684e-06
8.11241e-06
1.8098e-06
4.44973e-06
5.13526e-06
1.92426e-06
1.98196e-06
4.2871e-06
2.15032e-06
2.22923e-06
2.29752e-06
8.21636e-06
1.79246e-06
1.44547e-06
1.35296e-06
1.575e-06
3.18723e-06
3.29272e-06
1.82547e-06
3.94963e-06
4.04979e-06
4.13014e-06
4.15389e-06
1.91793e-06
1.89622e-06
2.06555e-06
4.06919e-06
4.03532e-06
2.0999e-06
2.07017e-06
2.14825e-06
3.95954e-06
3.95533e-06
2.3423e-06
2.18722e-06
3.9467e-06
1.93344e-06
1.84879e-06
3.91113e-06
1.6017e-06
4.07079e-06
1.38338e-06
3.92831e-06
1.34899e-06
1.55087e-06
2.80616e-06
1.729e-06
1.56538e-06
1.40511e-06
1.37778e-06
1.25364e-06
1.13256e-06
8.02943e-07
3.80061e-07
2.02927e-07
5.5462e-07
5.75055e-07
8.30295e-07
3.69375e-07
7.04811e-07
6.96109e-07
6.77973e-07
6.70904e-07
6.70331e-07
6.35987e-07
6.3731e-07
6.31444e-07
6.26244e-07
6.3133e-07
6.48193e-07
1.41511e-06
7.42917e-07
7.67053e-07
1.61132e-06
8.13387e-07
1.6576e-06
8.18472e-07
8.06362e-07
7.72562e-07
7.33254e-07
6.31927e-07
1.46302e-06
5.19279e-07
4.43467e-07
3.80809e-07
2.28425e-06
2.4632e-07
1.98803e-07
1.57398e-07
1.24274e-07
9.94372e-08
8.20153e-08
7.01128e-08
6.0563e-08
4.90945e-08
4.02901e-08
8.70609e-08
2.55341e-06
4.4049e-06
3.08489e-06
2.06724e-06
1.754e-06
1.23005e-06
1.35591e-06
1.39497e-06
1.45541e-06
2.50113e-06
2.56644e-06
2.36461e-06
2.0756e-06
3.62306e-06
1.84421e-06
1.52582e-06
2.83311e-06
3.69412e-06
1.52567e-06
1.56148e-06
1.63763e-06
1.60415e-06
1.72508e-06
4.03832e-06
4.06191e-06
4.06397e-06
1.79068e-06
4.07217e-06
1.70359e-06
1.70183e-06
1.76396e-06
1.75971e-06
1.82914e-06
1.90873e-06
1.90153e-06
1.89836e-06
1.89932e-06
3.94469e-06
1.91865e-06
3.90219e-06
3.8772e-06
3.93001e-06
1.58702e-06
1.38293e-06
1.27712e-06
1.72017e-06
1.74689e-06
1.49293e-06
1.12334e-06
5.53295e-07
4.47281e-07
4.17353e-07
4.15774e-07
3.95245e-07
3.38592e-07
2.18976e-07
3.99617e-07
3.58171e-07
7.50145e-07
1.04196e-06
1.61483e-06
6.63582e-07
6.71368e-07
6.55554e-07
6.27045e-07
5.78299e-07
5.77871e-07
5.86829e-07
5.94145e-07
5.89539e-07
5.8612e-07
5.92099e-07
6.10634e-07
6.3661e-07
7.08177e-07
7.34344e-07
7.5276e-07
7.77111e-07
7.83011e-07
7.88048e-07
7.77199e-07
7.43796e-07
6.5574e-07
6.01649e-07
5.59933e-07
4.93472e-07
4.19483e-07
3.58872e-07
2.85472e-07
2.33662e-07
1.89033e-07
1.51074e-07
1.19501e-07
9.61671e-08
7.93901e-08
6.7844e-08
5.86515e-08
4.7561e-08
3.92885e-08
1.73849e-07
2.33268e-07
2.32547e-06
2.86023e-06
1.88035e-06
9.33168e-07
5.47683e-07
6.91133e-07
8.71199e-07
1.11578e-06
3.94152e-06
1.68191e-06
1.78859e-06
2.22791e-06
2.79088e-06
2.81406e-06
1.45028e-06
1.39155e-06
4.57604e-06
1.5533e-06
3.93648e-06
1.48675e-06
1.53844e-06
1.55879e-06
3.95598e-06
1.58278e-06
1.52932e-06
1.50531e-06
3.91865e-06
1.46988e-06
4.06426e-06
4.13703e-06
1.49002e-06
1.5944e-06
4.21459e-06
1.54374e-06
1.6376e-06
1.73989e-06
1.81064e-06
3.9651e-06
1.68356e-06
1.60176e-06
1.5787e-06
4.1742e-06
1.28658e-06
1.7021e-06
1.61869e-06
9.17774e-07
5.43029e-07
4.19757e-07
4.07362e-07
3.38768e-07
3.86589e-07
3.65342e-07
3.73568e-07
4.30043e-07
4.60716e-07
6.95395e-07
3.62541e-07
3.58279e-07
3.51686e-07
6.24881e-07
6.20002e-07
6.2683e-07
1.8052e-06
5.38139e-07
5.24731e-07
5.28264e-07
1.66639e-06
1.60631e-06
5.48497e-07
5.45924e-07
5.53989e-07
5.72939e-07
5.98167e-07
6.29739e-07
6.97728e-07
7.16877e-07
7.40647e-07
7.49827e-07
7.54917e-07
7.46921e-07
1.44073e-06
6.2337e-07
5.71706e-07
5.25049e-07
4.67943e-07
3.97191e-07
3.37404e-07
2.59398e-06
2.20059e-07
1.8039e-07
1.44717e-07
1.14964e-07
9.28837e-08
7.67104e-08
6.53561e-08
5.67392e-08
4.60633e-08
3.81858e-08
1.93622e-07
2.04691e-07
7.72266e-07
1.3242e-06
7.91786e-07
2.66953e-07
1.6847e-07
1.9458e-07
3.06331e-07
6.51963e-07
1.23525e-06
1.61398e-06
1.73222e-06
1.88049e-06
2.59805e-06
1.63998e-06
1.53757e-06
4.65933e-06
1.48844e-06
1.38462e-06
1.37537e-06
4.07495e-06
4.10613e-06
3.72976e-06
3.76723e-06
1.37823e-06
1.32454e-06
1.27942e-06
1.20154e-06
1.21883e-06
3.70597e-06
1.2017e-06
1.25111e-06
4.00941e-06
1.32809e-06
1.38091e-06
4.06236e-06
1.48315e-06
1.50052e-06
1.555e-06
1.56603e-06
4.12385e-06
1.36589e-06
1.26023e-06
3.32161e-06
1.61471e-06
1.07294e-06
4.29415e-07
4.19212e-07
4.12125e-07
4.05803e-07
7.1287e-07
6.98716e-07
3.83079e-07
3.77547e-07
3.70064e-07
3.644e-07
3.60761e-07
3.54029e-07
6.15041e-07
5.91958e-07
2.03633e-06
5.67878e-07
1.93103e-06
5.16056e-07
4.8197e-07
4.67405e-07
4.72529e-07
4.85975e-07
4.99406e-07
1.66422e-06
5.0263e-07
5.10113e-07
5.33461e-07
5.61034e-07
5.94177e-07
6.189e-07
6.35867e-07
7.01652e-07
1.55415e-06
7.19498e-07
7.1352e-07
6.34851e-07
5.91127e-07
5.40776e-07
4.92443e-07
4.38047e-07
3.75017e-07
3.17679e-07
2.54533e-07
2.07571e-07
1.72083e-07
1.37993e-07
1.10272e-07
8.95238e-08
7.38597e-08
6.30051e-08
5.47405e-08
4.45533e-08
3.7025e-08
1.95353e-07
2.103e-07
5.76108e-07
8.73346e-07
8.0154e-07
8.09911e-07
7.08106e-07
4.03561e-07
2.22586e-07
4.54616e-07
7.60351e-07
3.98492e-06
1.67393e-06
4.30911e-06
1.83856e-06
1.76284e-06
1.68899e-06
1.47313e-06
1.36618e-06
1.25951e-06
1.19812e-06
5.20511e-06
1.14658e-06
1.21313e-06
1.17403e-06
1.17954e-06
1.18022e-06
3.69024e-06
1.06112e-06
3.35019e-06
1.05261e-06
1.06576e-06
3.18648e-06
1.08202e-06
3.58693e-06
1.23499e-06
1.33013e-06
1.38122e-06
1.46902e-06
1.38226e-06
1.33383e-06
1.26919e-06
1.44502e-06
3.28802e-06
1.49325e-06
5.72711e-07
8.22156e-07
7.85048e-07
7.75383e-07
7.70363e-07
1.64458e-06
1.60209e-06
1.54582e-06
3.77705e-07
1.63236e-06
3.62367e-07
6.46832e-07
1.889e-06
5.96149e-07
5.67826e-07
5.39717e-07
4.96971e-07
4.83315e-07
4.81463e-07
4.53047e-07
4.24552e-07
4.10332e-07
4.17512e-07
4.32242e-07
4.47877e-07
4.57534e-07
4.64118e-07
4.69601e-07
4.91589e-07
5.21105e-07
5.59365e-07
1.5211e-06
5.99463e-07
6.19451e-07
6.32558e-07
6.37608e-07
6.33536e-07
1.50631e-06
5.56967e-07
5.0699e-07
4.62815e-07
4.11412e-07
3.50656e-07
2.9935e-07
2.39986e-07
1.95926e-07
1.63484e-07
1.31363e-07
1.04998e-07
8.60574e-08
7.08718e-08
6.07348e-08
5.27133e-08
4.29553e-08
3.57835e-08
1.95481e-07
2.01625e-07
3.69264e-07
7.15369e-07
9.01397e-07
9.49724e-07
1.05172e-06
9.93044e-07
5.306e-07
3.2034e-07
9.2797e-07
9.22755e-07
1.43169e-06
1.75962e-06
1.78416e-06
1.87493e-06
1.77405e-06
4.04643e-06
1.36092e-06
1.16297e-06
1.0313e-06
9.29031e-07
9.24382e-07
9.88128e-07
1.05091e-06
4.00487e-06
1.05659e-06
9.62137e-07
8.79888e-07
8.7571e-07
8.9734e-07
9.82729e-07
1.03791e-06
1.08802e-06
1.1744e-06
1.13433e-06
1.23064e-06
3.90733e-06
1.30884e-06
1.32002e-06
1.39938e-06
1.38643e-06
3.17517e-06
1.47735e-06
6.06596e-07
7.76029e-07
1.55012e-06
6.96726e-07
6.94459e-07
7.02358e-07
7.14761e-07
7.00524e-07
6.84817e-07
6.73051e-07
6.45653e-07
6.15689e-07
5.93811e-07
5.69671e-07
5.44459e-07
4.89582e-07
4.58746e-07
4.3793e-07
4.22293e-07
4.15183e-07
2.43905e-06
3.64962e-07
3.58791e-07
3.68072e-07
3.81908e-07
3.96756e-07
4.07895e-07
4.14651e-07
4.24951e-07
4.52721e-07
4.8104e-07
5.20199e-07
5.45619e-07
5.62563e-07
5.8146e-07
5.93214e-07
6.02111e-07
5.99535e-07
5.64879e-07
5.20451e-07
4.75544e-07
4.27683e-07
3.85012e-07
2.43848e-06
2.7978e-07
2.25739e-07
1.85373e-07
1.53881e-07
1.24422e-07
1.00028e-07
8.20023e-08
6.78926e-08
5.83855e-08
5.0744e-08
4.13078e-08
3.4417e-08
1.96211e-07
1.97959e-07
2.37868e-07
4.08485e-07
5.19152e-07
4.9697e-07
6.47718e-07
1.01037e-06
9.68606e-07
4.72258e-07
4.20295e-07
7.31184e-07
1.08344e-06
5.39781e-06
1.66131e-06
3.64658e-06
3.59152e-06
1.38465e-06
4.36226e-06
1.00009e-06
5.25326e-06
7.6973e-07
7.55124e-07
8.17465e-07
5.30919e-06
5.28565e-06
9.51574e-07
3.1951e-06
8.12891e-07
8.00014e-07
8.71778e-07
1.10021e-06
2.4477e-06
1.17933e-06
1.24173e-06
1.36955e-06
3.414e-06
1.22626e-06
1.24704e-06
3.46123e-06
1.41523e-06
2.92666e-06
1.39255e-06
8.81628e-07
7.10096e-07
6.68218e-07
5.89035e-07
5.64522e-07
5.68913e-07
5.84417e-07
1.79168e-06
6.16984e-07
6.06052e-07
1.97106e-06
2.01793e-06
5.50528e-07
5.0303e-07
4.80503e-07
2.20922e-06
4.32143e-07
3.97276e-07
3.7486e-07
3.58275e-07
3.4943e-07
3.33375e-07
3.13019e-07
3.09359e-07
3.19691e-07
3.35123e-07
3.53809e-07
2.16001e-06
3.74757e-07
3.84697e-07
4.0909e-07
4.42178e-07
4.79289e-07
5.03536e-07
5.25897e-07
5.4539e-07
5.55908e-07
1.62056e-06
1.62281e-06
5.27576e-07
4.84307e-07
4.43641e-07
3.97004e-07
3.56528e-07
3.09257e-07
2.60817e-07
2.11946e-07
1.75022e-07
1.4511e-07
1.17654e-07
9.51204e-08
7.79939e-08
6.5148e-08
5.59729e-08
4.85567e-08
3.97698e-08
3.32339e-08
1.97198e-07
1.94202e-07
1.90367e-07
2.2243e-07
2.34416e-07
2.14603e-07
3.17802e-07
6.72694e-07
1.02546e-06
7.55492e-07
3.64034e-07
5.46122e-09
7.53106e-07
1.04954e-06
1.26403e-06
1.37653e-06
1.25272e-06
1.05227e-06
9.10104e-07
7.74313e-07
6.50645e-07
5.70579e-07
3.10516e-06
6.6311e-07
7.6963e-07
2.87697e-06
1.02884e-06
1.8402e-06
9.018e-07
7.68798e-07
6.19634e-07
6.62427e-07
7.76345e-07
9.76405e-07
1.30227e-06
1.51531e-06
1.58918e-06
1.33007e-06
1.36457e-06
1.40698e-06
1.48134e-06
1.05963e-06
8.29253e-07
6.66617e-07
5.60912e-07
1.58417e-06
4.81175e-07
4.62152e-07
4.73951e-07
4.97645e-07
1.92544e-06
4.94568e-07
4.90221e-07
4.93404e-07
4.77251e-07
4.54208e-07
4.34375e-07
4.11277e-07
3.92911e-07
2.72257e-06
3.33205e-07
3.14298e-07
3.00881e-07
2.9392e-07
2.82176e-07
2.71687e-07
2.70199e-07
2.8192e-07
2.97171e-07
3.11712e-07
3.25008e-07
3.33758e-07
3.47882e-07
3.72988e-07
4.00975e-07
4.39477e-07
4.64571e-07
4.85755e-07
5.05753e-07
5.17435e-07
5.30155e-07
1.742e-06
4.89632e-07
4.50937e-07
4.10002e-07
3.70033e-07
3.30193e-07
2.87355e-07
2.44885e-07
1.99064e-07
1.64729e-07
1.36787e-07
1.1096e-07
9.03452e-08
7.40317e-08
6.23363e-08
5.36552e-08
4.63763e-08
3.81633e-08
3.22421e-08
1.97855e-07
1.86687e-07
1.69572e-07
1.50798e-07
1.26946e-07
1.03267e-07
1.6961e-07
4.40421e-07
8.48138e-07
9.14256e-07
4.81516e-07
3.0635e-07
3.77993e-07
6.64263e-07
8.24479e-07
9.09443e-07
4.67062e-06
3.86211e-06
6.61062e-07
2.83509e-06
4.35605e-07
4.0359e-07
4.47423e-07
5.4306e-07
6.53508e-07
9.53818e-07
7.05628e-07
6.12062e-07
5.71701e-07
2.89158e-07
2.37226e-07
3.47918e-07
5.87762e-07
5.3507e-07
8.56439e-07
1.26797e-06
1.49067e-06
2.56553e-06
1.35827e-06
2.21503e-06
9.7159e-07
7.70141e-07
6.09872e-07
1.50165e-06
4.39838e-07
3.96469e-07
2.08627e-06
3.57572e-07
2.20057e-06
4.02755e-07
2.29111e-06
3.99536e-07
4.00896e-07
4.06531e-07
2.50611e-06
3.78497e-07
3.58629e-07
3.37785e-07
3.19339e-07
3.00203e-07
2.76434e-07
2.62743e-07
2.54152e-07
3.44589e-06
2.39461e-07
2.3462e-07
2.35144e-07
2.45962e-07
2.615e-07
2.76948e-07
2.91674e-07
3.0053e-07
3.1276e-07
3.36412e-07
3.67087e-07
3.97727e-07
4.23333e-07
4.49089e-07
4.67054e-07
4.77343e-07
4.88128e-07
4.89452e-07
1.98115e-06
4.12521e-07
3.80556e-07
3.39571e-07
3.07499e-07
2.66443e-07
2.29227e-07
1.87775e-07
1.54752e-07
1.28942e-07
1.04723e-07
8.56407e-08
7.04709e-08
5.9485e-08
5.13601e-08
4.42538e-08
3.67733e-08
3.11811e-08
1.97354e-07
1.73088e-07
1.34487e-07
1.02564e-07
6.86746e-08
5.11601e-08
1.15485e-07
3.56108e-07
7.25061e-07
9.10981e-07
6.46587e-07
2.95159e-07
2.64719e-07
4.13765e-07
5.38979e-07
2.41885e-06
5.38757e-07
4.56253e-07
2.22266e-06
3.43494e-07
2.67001e-07
2.18867e-07
2.55932e-07
2.45289e-07
3.4661e-07
1.80017e-07
1.62868e-07
3.21019e-07
4.6055e-07
1.85749e-07
1.11837e-07
1.35129e-07
2.10838e-07
3.44696e-07
6.27009e-07
1.11511e-06
1.03354e-06
1.09523e-06
9.85252e-07
1.47263e-06
6.93306e-07
1.39117e-06
4.41725e-07
1.97706e-06
2.29128e-06
2.77363e-07
2.65835e-07
2.67849e-07
2.84203e-07
2.6626e-06
3.08262e-07
3.0604e-07
3.12885e-07
3.20486e-07
3.15833e-07
3.02459e-07
2.87404e-07
2.72525e-07
2.58221e-07
2.45168e-07
2.31116e-07
2.20753e-07
2.14222e-07
2.12687e-07
2.04833e-07
2.01929e-07
2.0482e-07