/*--------------------------------*- C++ -*----------------------------------*\
  =========                 |
  \\      /  F ield         | OpenFOAM: The Open Source CFD Toolbox
   \\    /   O peration     | Website:  https://openfoam.org
    \\  /    A nd           | Version:  6
     \\/     M anipulation  |
\*---------------------------------------------------------------------------*/
FoamFile
{
    version     2.0;
    format      ascii;
    class       volScalarField;
    location    "0.1";
    object      C2H5OH;
}
// * * * * * * * * * * * * * * * * * * * * * * * * * * * * * * * * * * * * * //

dimensions      [0 0 0 0 0 0 0];

internalField   nonuniform List<scalar> 
8000
(
0.0136258
0.0165736
0.0209918
0.0379932
0.0511701
0.0465952
0.0310622
0.0234423
0.0197206
0.0175119
0.0164567
0.0165094
0.0176813
0.0174818
0.0183799
0.0190082
0.00925643
0.035104
0.0122528
0.0119809
0.00939423
0.00676433
0.00652964
0.00902427
0.0122964
0.0205165
0.0255766
0.0245417
0.0253973
0.132757
0.0433826
0.00926436
0.00559781
0.00397666
0.00342245
0.00323904
0.00319624
0.00338073
0.00441217
0.00559226
0.00370172
0.00247136
0.00207979
0.00222875
0.00283352
0.00411311
0.00701038
0.0136326
0.0315692
0.104559
0.0742126
0.0652247
0.0634442
0.0646738
0.066739
0.0692036
0.0708052
0.0703199
0.0673232
0.0623504
0.050908
0.0437073
0.0302205
0.0126031
0.00737874
0.00126884
0.00373032
0.00227373
0.0020705
0.00195547
0.00537926
0.00161432
0.00163798
0.00217703
0.00224058
0.00174933
0.00174497
0.00182308
0.0019638
0.00201342
0.00186634
0.00183353
0.00166279
0.00205976
0.0016719
0.00129863
0.00103423
0.000846136
0.00252416
0.000503671
0.000356449
0.000256653
0.00019667
0.000154837
9.53196e-05
7.22318e-05
6.00732e-05
5.18765e-05
4.74638e-05
3.25684e-05
0.0135672
0.016202
0.0202069
0.0397748
0.0590681
0.0461223
0.0295157
0.022449
0.0193622
0.0175312
0.0166225
0.0169061
0.0184316
0.0144601
0.0160473
0.0184812
0.0148027
0.0125983
0.0122385
0.0114976
0.00949773
0.0069704
0.00673714
0.0093528
0.0129074
0.0225877
0.0262342
0.0245343
0.0230458
0.0301012
0.0125358
0.00763974
0.00514631
0.00395761
0.00367591
0.0036093
0.0035658
0.00370853
0.00486141
0.0125626
0.00457625
0.0027469
0.00226887
0.00241866
0.00304705
0.00441454
0.00736702
0.0137717
0.0301766
0.0428349
0.0559135
0.0609935
0.0638952
0.0653573
0.0671305
0.0691703
0.0703014
0.0694216
0.066269
0.0613924
0.0501195
0.0430657
0.0296166
0.0126309
0.00373577
0.00125089
0.00369587
0.00226304
0.00206273
0.00194103
0.00185247
0.00160181
0.00163601
0.00216167
0.00222767
0.00174708
0.00173771
0.00181772
0.00195589
0.00201614
0.00186128
0.0018329
0.00165742
0.00205241
0.00167424
0.00129562
0.00103182
0.000844532
0.000709886
0.000502212
0.000355948
0.000256216
0.000196406
0.000154864
9.51088e-05
7.21053e-05
5.99883e-05
5.18116e-05
4.75009e-05
3.25226e-05
0.0137948
0.0151972
0.00893496
0.00994188
0.0482783
0.0347399
0.0253426
0.0091514
0.0101388
0.0180394
0.0137524
0.017442
0.0190487
0.0155107
0.0167741
0.0175697
0.0179915
0.0174063
0.012644
0.00427072
0.010949
0.00759818
0.00721382
0.0100216
0.0140625
0.0292282
0.0290069
0.0245625
0.0196277
0.0153117
0.00975634
0.00643479
0.00479282
0.0040779
0.00436121
0.00475263
0.00455499
0.00456625
0.00468978
0.00487486
0.00368576
0.00290791
0.00261927
0.00279946
0.00350483
0.00508013
0.0082068
0.0150912
0.0294845
0.0406692
0.0487753
0.0629528
0.0664966
0.066896
0.0676741
0.0688366
0.0691639
0.0676311
0.0642073
0.057415
0.0485242
0.041726
0.0283288
0.0112163
0.00385876
0.00121307
0.00236832
0.00223871
0.00204668
0.00191202
0.00179959
0.00157913
0.00589294
0.00212737
0.00220018
0.00574543
0.00172177
0.00180617
0.0019388
0.00527517
0.0018499
0.0018317
0.00164504
0.00203787
0.00464816
0.00128888
0.00102679
0.000841114
0.000691915
0.000499473
0.000354863
0.000255258
0.00149457
0.0014739
9.46419e-05
7.18301e-05
5.98012e-05
5.16684e-05
0.00198062
3.24207e-05
0.0142159
0.0143659
0.0258872
0.0342346
0.0323888
0.0270124
0.0216013
0.0189508
0.0174606
0.0166096
0.0163109
0.0168796
0.0183137
0.00969599
0.0288751
0.0177405
0.0186467
0.0184064
0.0129526
0.0124468
0.00954434
0.0071511
0.00768602
0.0100004
0.0152651
0.0591104
0.0338098
0.0244773
0.017787
0.0122439
0.00851417
0.00598353
0.00480919
0.00435065
0.00520092
0.0116031
0.00605447
0.0075978
0.00553434
0.00501666
0.00411798
0.00357594
0.00321688
0.00334315
0.00417393
0.00636687
0.00995881
0.017226
0.0303818
0.0388907
0.0497882
0.0656542
0.0870002
0.0682418
0.0675935
0.0678168
0.0674273
0.0652427
0.0614445
0.0514674
0.0464042
0.0350095
0.0264611
0.00942291
0.00407313
0.00116635
0.00230956
0.00219901
0.00202617
0.0018717
0.00565959
0.00220786
0.00221901
0.00207433
0.00215965
0.00167666
0.00169768
0.00178918
0.00191419
0.00194911
0.00183193
0.00183039
0.00162481
0.0020196
0.00162353
0.00127827
0.00101924
0.000836075
0.000678191
0.000495723
0.00035323
0.000253831
0.000192363
0.000148172
9.39049e-05
7.14164e-05
5.9518e-05
5.14498e-05
4.55964e-05
3.2257e-05
0.0143193
0.0128974
0.0587817
0.0421738
0.0271063
0.0221587
0.0191817
0.0175662
0.0164203
0.0159675
0.0146215
0.0158794
0.0161017
0.0164726
0.0185276
0.018666
0.0186452
0.0178758
0.0139842
0.0115053
0.00821284
0.00705206
0.00873909
0.0114588
0.0167408
0.0297325
0.0284882
0.0227602
0.0165329
0.0116114
0.00831449
0.00625393
0.00528151
0.00477702
0.00494263
0.00519445
0.00513578
0.00539858
0.0058706
0.0143072
0.00511573
0.0046227
0.00404204
0.00401121
0.00505481
0.00787452
0.0126155
0.0201203
0.0322217
0.0432562
0.0504139
0.0643124
0.0693098
0.0666356
0.0661929
0.0659665
0.0652254
0.0624854
0.0559416
0.0484618
0.043953
0.0325576
0.0241278
0.00591656
0.00265115
0.00389428
0.00224008
0.00213993
0.00526483
0.00182439
0.00170632
0.00212503
0.00208457
0.00200788
0.00210834
0.00161929
0.00166776
0.00176718
0.00188242
0.00189534
0.00180963
0.00557436
0.00159608
0.00563738
0.00158589
0.00126473
0.00100922
0.000829505
0.000664279
0.000491045
0.000351065
0.000251969
0.000189329
0.000142954
9.29692e-05
7.08725e-05
5.91401e-05
5.11585e-05
4.40192e-05
3.20531e-05
0.0144163
0.0123805
0.0409461
0.0266433
0.0206083
0.0190111
0.0180578
0.0097032
0.0162153
0.015805
0.0161081
0.0166691
0.0172754
0.0174485
0.0185394
0.0169631
0.0170065
0.0167947
0.0155497
0.0104766
0.00761747
0.0076297
0.0117521
0.0189907
0.0183496
0.0267777
0.0259947
0.0224722
0.0176054
0.0120243
0.00906811
0.00722658
0.00604773
0.00569167
0.00549055
0.00538034
0.00537455
0.00564655
0.00610387
0.00617759
0.00557689
0.00581635
0.0110286
0.00486123
0.00626085
0.0100723
0.0173732
0.0231892
0.0335232
0.0713658
0.0500533
0.0624567
0.0843858
0.0649028
0.0640723
0.063486
0.0625698
0.0591083
0.0491978
0.0450978
0.0413036
0.0297308
0.0213747
0.00550178
0.00264033
0.00370469
0.00216254
0.00205924
0.00192856
0.00177224
0.00165007
0.00202896
0.00196612
0.00193622
0.00204878
0.00156696
0.00163184
0.00174074
0.0018459
0.00185296
0.00178382
0.00562832
0.00223078
0.00190885
0.00155526
0.00124851
0.000996914
0.00082185
0.000650972
0.000485556
0.000348376
0.000249707
0.000186414
0.00156787
9.18642e-05
7.03034e-05
5.8663e-05
5.08043e-05
4.27252e-05
3.18148e-05
0.0139084
0.0127522
0.0201681
0.00936421
0.0177046
0.0181375
0.0107725
0.0136133
0.0146494
0.0164811
0.0166446
0.0173365
0.0159977
0.0182812
0.0186219
0.0188076
0.018659
0.0161284
0.0126599
0.00944127
0.00376281
0.00847077
0.00971197
0.0128929
0.0187403
0.0501312
0.0486219
0.0226955
0.0425227
0.0143488
0.0107004
0.00879363
0.0077814
0.00703026
0.00664875
0.0063548
0.00642336
0.00629927
0.0066399
0.00738608
0.0134656
0.00577911
0.00516684
0.00555008
0.00716667
0.0123752
0.0534373
0.0270125
0.0332618
0.0395366
0.0472748
0.0545153
0.0821067
0.0622831
0.0612324
0.0602187
0.0590821
0.0750513
0.0455798
0.0415425
0.0385151
0.0266076
0.0114469
0.00710495
0.00510241
0.00228873
0.00207552
0.00196921
0.00185799
0.00171915
0.00159707
0.00192795
0.00186303
0.00185983
0.00198267
0.00213555
0.0015917
0.00171021
0.00180663
0.00558046
0.00175489
0.00173156
0.00214003
0.00183029
0.00152908
0.00122972
0.000982302
0.00261837
0.000638656
0.000479892
0.000345188
0.000247092
0.0001835
0.000134063
9.05806e-05
6.96219e-05
5.80967e-05
5.03962e-05
4.16385e-05
3.15438e-05
0.0150617
0.0132113
0.0106922
0.0163815
0.0171095
0.0177467
0.0132438
0.0177528
0.0168704
0.0171211
0.0163862
0.0163357
0.0188864
0.01569
0.0185659
0.0183875
0.0171843
0.0141217
0.0107991
0.00829266
0.00733196
0.0081208
0.0107611
0.0225664
0.0218058
0.0274479
0.0256488
0.0230143
0.019975
0.0154896
0.0336054
0.0111338
0.0103102
0.0094131
0.00882285
0.015115
0.00797057
0.00782658
0.00807633
0.0079134
0.00687819
0.00581132
0.00553398
0.00632805
0.00796787
0.012337
0.019216
0.0233457
0.0320721
0.037135
0.044392
0.0489993
0.0784903
0.0565265
0.055502
0.0544994
0.053304
0.0466845
0.0417494
0.0333902
0.0302472
0.0364548
0.0176312
0.00399858
0.00110075
0.00217676
0.00198424
0.00187287
0.00179113
0.00592608
0.00585293
0.00182418
0.00176153
0.00177878
0.00551426
0.00203048
0.00220223
0.00167505
0.001767
0.00564335
0.00172368
0.00168034
0.00204309
0.00175866
0.00394781
0.00120873
0.000965441
0.000796806
0.000626716
0.000473628
0.000341706
0.00024412
0.000180581
0.000130017
8.91573e-05
6.88328e-05
5.74375e-05
4.99188e-05
4.06988e-05
3.12392e-05
0.0141697
0.0155723
0.0111742
0.0102021
0.0166369
0.0166579
0.0170019
0.0167026
0.0169203
0.0177821
0.0165241
0.0166932
0.0138527
0.0179798
0.0155147
0.0160277
0.0153712
0.0131333
0.0111436
0.00777268
0.00696093
0.00785629
0.00923965
0.0130149
0.0471907
0.0546306
0.0260477
0.0244373
0.0471702
0.017414
0.0152268
0.0145035
0.0151231
0.0142195
0.0121683
0.0110631
0.0243325
0.00997705
0.0102739
0.0234167
0.0077303
0.00678939
0.00670412
0.00743279
0.00887139
0.0123754
0.0173819
0.0227796
0.0311745
0.0353561
0.0390564
0.0452109
0.0479228
0.0493074
0.0729669
0.0475988
0.0467488
0.0428326
0.0380956
0.0295929
0.0411428
0.0232822
0.0051482
0.00567
0.00361109
0.00207087
0.00189123
0.00177126
0.00573342
0.00156774
0.00197198
0.00171201
0.00166131
0.00169417
0.00181459
0.00192945
0.0021058
0.00163197
0.00577307
0.00171464
0.00589906
0.00590778
0.00194814
0.00168961
0.00386769
0.00118358
0.000946568
0.000779356
0.000614545
0.00046676
0.000337869
0.000240836
0.000176453
0.000126433
8.76043e-05
6.7932e-05
5.67134e-05
4.93763e-05
3.98594e-05
3.08996e-05
0.013451
0.0147654
0.0159127
0.0113301
0.0157168
0.0157282
0.0143168
0.0165698
0.0163791
0.0172175
0.0201389
0.0168338
0.0154763
0.00974998
0.0177283
0.0167953
0.0152996
0.0127583
0.00634176
0.00306412
0.00363768
0.00776996
0.00884868
0.0123251
0.0199272
0.0509215
0.0254948
0.0241987
0.022032
0.01925
0.018347
0.0186329
0.0254484
0.0496389
0.0418466
0.0171041
0.0152445
0.0139798
0.0130935
0.0112707
0.0091328
0.00810704
0.00810559
0.00890964
0.0110624
0.0134963
0.0173572
0.0226947
0.0308462
0.0339644
0.0365757
0.0387173
0.0433942
0.0452099
0.0445101
0.0437986
0.0673712
0.0601352
0.0299365
0.0254793
0.0214382
0.00786367
0.00337042
0.0010917
0.0045561
0.00513435
0.001795
0.0016709
0.00594
0.00202675
0.00178866
0.0015997
0.0015694
0.00160859
0.00171349
0.00183351
0.00571588
0.00586207
0.00167133
0.00165527
0.0016252
0.00222127
0.00185957
0.00162197
0.00139927
0.00112718
0.000925892
0.000761105
0.000602053
0.000459367
0.000333688
0.000237381
0.000172341
0.00012305
8.61841e-05
6.69225e-05
5.59498e-05
4.87575e-05
3.91023e-05
3.05222e-05
0.013387
0.0133772
0.0131298
0.0132122
0.015486
0.0156897
0.0163099
0.0158191
0.0163909
0.0169423
0.0172337
0.0162203
0.00343799
0.00288828
0.0153774
0.0156965
0.0129111
0.01143
0.00913631
0.0079293
0.00737387
0.00798227
0.00937558
0.0121204
0.0174322
0.0250091
0.0255678
0.0242984
0.0236911
0.0220912
0.0214682
0.0229075
0.025937
0.025297
0.0237883
0.0501998
0.0230237
0.0476474
0.0182079
0.0401134
0.0123422
0.0103267
0.0102788
0.0119061
0.0132802
0.0150774
0.0175526
0.0224506
0.0584272
0.0327312
0.0340721
0.0353891
0.0363302
0.0413113
0.0648923
0.0400117
0.0590772
0.0307487
0.0257862
0.0212504
0.00993779
0.0123716
0.00239207
0.00351821
0.00203034
0.00183235
0.00170044
0.00156809
0.0020882
0.00543738
0.00162648
0.00149941
0.00148123
0.00152751
0.00161762
0.00173993
0.00190042
0.00213327
0.00161458
0.00586116
0.00222252
0.00207048
0.00177199
0.00155907
0.00133724
0.00109737
0.000903503
0.000742001
0.00058903
0.00183384
0.000329107
0.000233858
0.000168231
0.000119861
8.48318e-05
6.58324e-05
5.50892e-05
4.80681e-05
3.80759e-05
3.01106e-05
0.0135341
0.0140841
0.0141193
0.0144606
0.0170291
0.0159781
0.0174302
0.0165094
0.0168059
0.0167758
0.0167967
0.0213729
0.0158629
0.00647348
0.015181
0.0154888
0.0135238
0.0102158
0.00895975
0.00488355
0.0075695
0.00802815
0.0169485
0.012519
0.0166499
0.0485762
0.0534209
0.0247052
0.026819
0.0521575
0.0263612
0.0262206
0.0267346
0.0261435
0.0253598
0.0283026
0.026035
0.0279752
0.0479449
0.0198778
0.0160706
0.0138876
0.0136989
0.0154154
0.0168809
0.0167888
0.0186832
0.0212477
0.0256397
0.0310391
0.0584159
0.0591238
0.0598588
0.0336102
0.0330272
0.0319269
0.0301462
0.0262047
0.0215407
0.00975771
0.00470157
0.00685233
0.00102557
0.00209705
0.00188976
0.00169778
0.00593911
0.00580291
0.0018345
0.00165562
0.00149119
0.00140155
0.00139446
0.0014459
0.00153258
0.00164704
0.00179592
0.00199385
0.00222182
0.00215529
0.00208482
0.00194131
0.00168605
0.00149576
0.00128355
0.00106621
0.000879754
0.000722342
0.000575972
0.000438866
0.000324332
0.00164706
0.000164137
0.000116845
8.34281e-05
6.4646e-05
5.41547e-05
4.731e-05
3.72689e-05
2.96581e-05
0.0138212
0.0148146
0.015644
0.017115
0.0182044
0.0161936
0.0179451
0.0164378
0.0181949
0.0184337
0.021116
0.0231076
0.0172663
0.0175626
0.0160143
0.0156767
0.0129418
0.00946182
0.00795403
0.00744911
0.00766876
0.00895102
0.0251433
0.0128952
0.0161421
0.0436276
0.0236867
0.0234171
0.0569363
0.029124
0.055942
0.0305255
0.0325634
0.0322608
0.0294857
0.029201
0.0309178
0.0307951
0.0257288
0.0233438
0.0496268
0.046133
0.0174148
0.0194552
0.051116
0.0173217
0.0184503
0.0490841
0.019899
0.0279731
0.0528359
0.028082
0.0285204
0.029425
0.0502047
0.0457154
0.0255598
0.0355324
0.0100834
0.00631411
0.00289352
0.00462472
0.0050021
0.00195326
0.00548803
0.00156651
0.00587558
0.00177082
0.00162706
0.00149123
0.00137178
0.00130846
0.00131097
0.00136461
0.00145004
0.00156162
0.00169645
0.0018697
0.00581908
0.00201154
0.00195484
0.00533186
0.00160464
0.00143291
0.00123228
0.00103583
0.000855546
0.000702172
0.000562952
0.000425599
0.00170448
0.000224658
0.000160018
0.000113988
8.19261e-05
6.33607e-05
5.31622e-05
4.60949e-05
3.64711e-05
2.9193e-05
0.013747
0.0149387
0.0166296
0.0169247
0.0147325
0.0175908
0.0163314
0.0148139
0.013433
0.0061052
0.0214272
0.00610438
0.0188723
0.00144424
0.00400965
0.0161197
0.0125844
0.00321135
0.0019267
0.00607773
0.00722747
0.0152032
0.0137001
0.0129861
0.0149263
0.0175627
0.0198808
0.0208629
0.023844
0.0256088
0.0272929
0.0299315
0.0331137
0.0585332
0.0326969
0.0324266
0.032777
0.03293
0.0556043
0.0241899
0.022687
0.0203916
0.0200574
0.022102
0.0526709
0.0167477
0.015428
0.0145452
0.0160478
0.0169986
0.0152408
0.0146042
0.017367
0.0427513
0.0415979
0.0230334
0.0209357
0.0168252
0.00663892
0.00309145
0.000929355
0.000908836
0.00452485
0.00181043
0.00161231
0.00196997
0.00177155
0.00156661
0.00146513
0.00135333
0.00126806
0.00122574
0.00123541
0.00128881
0.00136999
0.0014789
0.00160174
0.00175257
0.00195038
0.00188534
0.00184144
0.00172787
0.00152985
0.00390399
0.00115596
0.0031502
0.00271697
0.00068113
0.00054936
0.000411994
0.000309172
0.000218701
0.000155798
0.000111377
8.03514e-05
6.19889e-05
5.20893e-05
4.48759e-05
3.56664e-05
2.87474e-05
0.0135585
0.0149882
0.0189457
0.0157736
0.00253171
0.0132814
0.0119514
0.0147275
0.00468495
0.0187689
0.00413785
0.0045408
0.0182946
0.00124551
0.00228035
0.0156488
0.0119627
0.00175698
0.00724157
0.00787807
0.00734972
0.00881737
0.0226713
0.0109606
0.0137493
0.0157034
0.044238
0.0181768
0.0189898
0.0220245
0.0250423
0.025635
0.0542977
0.0297718
0.0569744
0.0338177
0.0344365
0.0631119
0.0572909
0.0244316
0.0231235
0.0227705
0.0225315
0.0228448
0.0193785
0.0144485
0.0126671
0.011537
0.0111026
0.0359345
0.0101058
0.0112185
0.0110516
0.0112171
0.0107025
0.0152308
0.00944945
0.00708177
0.00333226
0.00464052
0.00326858
0.00196004
0.00182825
0.00166477
0.00207607
0.00172513
0.00154244
0.00139587
0.00410865
0.00123991
0.00114887
0.00111832
0.00113527
0.00121718
0.00129641
0.0013978
0.00151665
0.00164159
0.00534788
0.00176888
0.00173187
0.00162668
0.00145697
0.00130665
0.00110464
0.000969968
0.000807687
0.000661895
0.000535246
0.000398413
0.0017605
0.000213134
0.000151606
0.000108786
7.90196e-05
6.07833e-05
5.09263e-05
4.36239e-05
3.48552e-05
2.82621e-05
3.53102e-05
0.00300142
0.0155672
0.00504253
0.00159258
0.00331732
0.00951302
0.00195
0.00219222
0.0115906
0.0122996
0.0018677
0.0153445
0.0172218
0.016978
0.00396007
0.00983433
0.00738586
0.00618581
0.00606468
0.00816452
0.0113839
0.00796239
0.02173
0.0308716
0.039585
0.0391241
0.0142012
0.0146707
0.0178541
0.0482914
0.0503828
0.021628
0.0217442
0.024415
0.0597326
0.0602681
0.0321029
0.0279605
0.0532941
0.0237729
0.0243076
0.0543917
0.020311
0.0453544
0.0116938
0.0324374
0.00843758
0.00842312
0.0163345
0.00849418
0.00860198
0.00820457
0.00837121
0.00768413
0.00714892
0.0046874
0.00586404
0.00461779
0.00313277
0.00457577
0.00503107
0.00163859
0.00216528
0.00174512
0.0014813
0.0013265
0.00122844
0.00115689
0.00109151
0.00104622
0.00103068
0.00105068
0.00110724
0.0036529
0.00130631
0.00141923
0.00417829
0.00165363
0.00472397
0.00160921
0.00152397
0.00137299
0.00123433
0.00104775
0.00298545
0.000775596
0.000638665
0.000518689
0.0018695
0.000284524
0.000206454
0.00014692
0.000105636
7.73633e-05
5.97456e-05
4.94125e-05
4.20964e-05
3.38529e-05
2.76709e-05
4.99808e-05
0.000125523
0.00553897
0.0166934
0.0132643
0.00800145
0.0055952
0.00621544
0.00687455
0.00740044
0.00184656
0.00172218
0.00167692
0.0143415
0.00163823
0.0106219
0.00778528
0.00213946
0.00472392
0.00527204
0.00501124
0.00538981
0.0059022
0.00775195
0.0297164
0.031643
0.0314986
0.0112136
0.0315027
0.0125882
0.0136662
0.0144598
0.0147708
0.0161824
0.018
0.0203944
0.0207376
0.0212103
0.052713
0.0236168
0.0531557
0.0569462
0.0541042
0.0166571
0.0117226
0.00878846
0.00546373
0.0046853
0.0047822
0.00476826
0.0028474
0.00653628
0.00631308
0.00633409
0.00199679
0.00170308
0.00482121
0.00491324
0.00194499
0.00489132
0.00528683
0.00586054
0.00203664
0.0017514
0.00146088
0.00125757
0.00111598
0.00104857
0.00101287
0.000979533
0.000950305
0.000942037
0.00096628
0.00101982
0.00109239
0.0012101
0.00130692
0.00139555
0.0014964
0.0014976
0.00148635
0.00141374
0.00128547
0.00112829
0.000988366
0.00086994
0.000738016
0.00061
0.000495289
0.00036359
0.000267896
0.000196433
0.000141333
0.000101884
7.54091e-05
5.84932e-05
4.75326e-05
4.05934e-05
3.2647e-05
2.691e-05
0.00011422
9.37291e-05
0.000985852
0.00521674
0.00568625
0.00235762
0.00144572
0.00191059
0.00292404
0.00419303
0.00542736
0.00806988
0.00971561
0.00179719
0.00165539
0.00198988
0.00673563
0.00558021
0.00923726
0.00492264
0.00947945
0.00435335
0.00486357
0.00642077
0.0222571
0.00805785
0.00770652
0.00786147
0.022624
0.00876546
0.0304468
0.0328856
0.0110393
0.0134875
0.0392925
0.012822
0.0139249
0.0155798
0.0182015
0.0494068
0.0194512
0.0192985
0.016454
0.0418655
0.00890698
0.00511308
0.00427696
0.00324999
0.00233956
0.00202821
0.00208402
0.00453615
0.00214551
0.00468005
0.00205863
0.00438497
0.004378
0.00482733
0.00171415
0.00159671
0.00147953
0.00190243
0.00164115
0.00144719
0.00412711
0.00106418
0.000968066
0.000917541
0.00308088
0.00300994
0.000862505
0.000860173
0.00088396
0.000938373
0.00100721
0.00109166
0.00120528
0.00127987
0.00135653
0.00136917
0.00136367
0.00131064
0.00368566
0.00105162
0.00092904
0.000822571
0.00070077
0.000580417
0.00047016
0.00194577
0.000252919
0.000186641
0.000135772
9.80968e-05
7.3371e-05
5.71004e-05
4.62327e-05
3.91172e-05
3.14826e-05
2.60677e-05
0.000128819
0.000122982
0.000528407
0.000995371
0.000951578
0.000374438
0.000187454
9.52123e-05
0.000381009
0.00134243
0.00339663
0.00577289
0.00770176
0.00953546
0.00285988
0.00760598
0.006236
0.0078876
0.0047426
0.00392834
0.00368903
0.0113518
0.0130438
0.0147236
0.017248
0.00579072
0.00543085
0.00523944
0.00480197
0.00546274
0.0183195
0.00571986
0.00652162
0.0272337
0.00749526
0.00799934
0.0312669
0.0109114
0.0122189
0.0136505
0.0143374
0.0428344
0.0114258
0.00873956
0.00985498
0.00897381
0.00587011
0.00169734
0.00168465
0.00172078
0.00180838
0.00517039
0.00508906
0.00185269
0.00180828
0.00177377
0.00172754
0.00160582
0.00148988
0.00197731
0.00174865
0.00463681
0.00135595
0.00407578
0.00104365
0.000921118
0.000848201
0.000812946
0.000799803
0.000793873
0.00267995
0.000788794
0.000814112
0.00086334
0.000926474
0.00101203
0.00108439
0.00115316
0.00123963
0.00396627
0.00125725
0.00121955
0.00109501
0.00098643
0.000873312
0.000774647
0.00066792
0.00055063
0.000442438
0.000324337
0.000238589
0.000177109
0.000129646
9.43577e-05
7.13303e-05
5.55229e-05
4.5128e-05
3.75942e-05
3.03379e-05
2.51689e-05
0.000130435
0.000139714
0.00041294
0.000747055
0.000855234
0.000945817
0.00088957
0.000524728
0.000174639
0.000144277
0.00105051
0.00619895
0.00587145
0.00744147
0.00796175
0.00719404
0.00629207
0.00488288
0.00396417
0.00320195
0.0028195
0.0122606
0.00279195
0.00341685
0.00386756
0.00399517
0.004196
0.0122282
0.00276743
0.0105958
0.00276588
0.00276909
0.0104763
0.00397407
0.014907
0.00522039
0.006507
0.00735955
0.00861048
0.0100116
0.0102511
0.00940678
0.00658555
0.00930061
0.00378407
0.00204662
0.00214532
0.00192086
0.00191227
0.00198364
0.00587857
0.00594165
0.00591461
0.00159261
0.00591265
0.00152641
0.00218488
0.00573091
0.0017693
0.0015978
0.00142746
0.0012664
0.00112488
0.0010161
0.000897591
0.000799209
0.000742318
0.000717951
0.0007103
0.000709916
0.000711822
0.000719017
0.000743992
0.000794679
0.000855307
0.000934914
0.00326965
0.00105694
0.00110877
0.00113269
0.00113455
0.00110448
0.00333548
0.0009186
0.00082366
0.000727403
0.000633384
0.000522275
0.000414343
0.000302933
0.000224472
0.000168568
0.000123476
9.04504e-05
6.92172e-05
5.37915e-05
4.41417e-05
3.67984e-05
2.91384e-05
2.42175e-05
0.000130747
0.000133906
0.000257009
0.000558196
0.000784102
0.000834216
0.000989888
0.00111895
0.000658398
0.000192602
0.000410108
0.00135113
0.00377147
0.00603555
0.00655344
0.00716082
0.00647521
0.0107615
0.0037313
0.00267047
0.00207752
0.00173815
0.00178457
0.00217194
0.00253773
0.0126417
0.00241554
0.00184954
0.00147679
0.00144961
0.00137407
0.00147555
0.0016876
0.00194883
0.00240172
0.00339255
0.00447414
0.0187283
0.00613781
0.00682877
0.00712238
0.00566117
0.00951796
0.00349882
0.00198935
0.00187858
0.00432935
0.00147592
0.00146802
0.00153041
0.00165412
0.00172725
0.00178403
0.00184196
0.0018202
0.00176344
0.00168212
0.00156751
0.0014433
0.00129694
0.00116978
0.00105666
0.000955244
0.000868177
0.00304629
0.000693067
0.000641747
0.000626537
0.000626686
0.000634994
0.000643162
0.000654713
0.000680473
0.000727022
0.000787818
0.000863976
0.000922289
0.000973871
0.00101887
0.00103732
0.00104511
0.00102603
0.000947824
0.000859917
0.000773464
0.000687529
0.00059414
0.00222665
0.000389225
0.000283574
0.000210437
0.000158603
0.000116743
8.65189e-05
6.64306e-05
5.19862e-05
4.30484e-05
3.60007e-05
2.81099e-05
2.31759e-05
0.000130935
0.000131025
0.000159062
0.00028636
0.000376157
0.000356081
0.000486124
0.000903334
0.00110646
0.000536299
0.000200513
0.000654484
0.00206152
0.0156812
0.0053851
0.013176
0.0122829
0.00402869
0.0110437
0.00202549
0.0106112
0.00116471
0.00113101
0.00141717
0.0126702
0.0126339
0.00151662
0.0058904
0.000874928
0.000799876
0.000867878
0.00113758
0.00409809
0.00136402
0.00168535
0.00233367
0.0112436
0.00402177
0.00467787
0.0168068
0.00507864
0.0095789
0.00323332
0.00189138
0.00165835
0.00140739
0.00121884
0.00113904
0.00114179
0.00119978
0.00426092
0.00133328
0.00138223
0.0045819
0.00464164
0.00140668
0.00133817
0.00125445
0.00396136
0.00107743
0.000981207
0.000889187
0.000810088
0.000738108
0.000660866
0.000591428
0.000552483
0.000544955
0.000549655
0.000563423
0.00228203
0.00058845
0.000617318
0.000666536
0.000723383
0.000796088
0.000850414
0.000894423
0.000933532
0.000952505
0.00328971
0.00326708
0.000878373
0.00080274
0.000724966
0.000643455
0.000557858
0.000460066
0.000361349
0.000265347
0.000196972
0.000149221
0.000110154
8.26898e-05
6.35736e-05
5.04763e-05
4.18135e-05
3.50552e-05
2.75993e-05
2.23232e-05
0.000131003
0.000127479
0.000124404
0.000146189
0.000153465
0.000136473
0.000203952
0.00049432
0.000977049
0.000921179
0.000327386
0.00012607
0.000835016
0.00211234
0.00329144
0.00423709
0.00365116
0.00255445
0.00185231
0.00129707
0.000908086
0.000653145
0.00480032
0.000869405
0.00111439
0.00521487
0.00130655
0.00261705
0.000735779
0.000549076
0.000436973
0.000529492
0.000676705
0.00092793
0.00140812
0.00191028
0.00226576
0.00342675
0.00386301
0.00388449
0.00344744
0.00171432
0.00179881
0.00155237
0.00123103
0.00324394
0.000952587
0.00090869
0.000922714
0.000973664
0.00358858
0.00106261
0.00110424
0.00114366
0.00114927
0.00113434
0.00109146
0.00103686
0.000981887
0.00347376
0.000819417
0.00073753
0.000674079
0.000615585
0.000549278
0.000496692
0.000468788
0.000466765
0.000476536
0.000493949
0.000512329
0.000528186
0.000556895
0.000604563
0.000663772
0.00073037
0.000779178
0.000825027
0.000861002
0.000877032
0.000889676
0.00311439
0.000816642
0.000744875
0.000679113
0.000597686
0.000520144
0.00042801
0.000334145
0.0002472
0.000184568
0.000140034
0.000104111
7.88971e-05
6.0636e-05
4.88545e-05
4.06076e-05
3.4044e-05
2.69874e-05
2.21576e-05
0.000130765
0.000121468
0.00010863
9.48762e-05
7.65983e-05
5.78122e-05
9.13586e-05
0.0002667
0.000669076
0.000981092
0.000607716
0.000199754
0.000253561
0.000802805
0.00155132
0.00209686
0.0116097
0.00756785
0.00105721
0.00408119
0.000413643
0.00031167
0.00036142
0.0004996
0.000655901
0.000913727
0.00126586
0.000466973
0.000945052
0.000156966
0.00011907
0.000210356
0.000963381
0.000410903
0.000846514
0.00150208
0.00191363
0.00622052
0.00192237
0.00649787
0.00156983
0.00151436
0.00141582
0.00333635
0.00094176
0.000817459
0.00260739
0.000715033
0.00270475
0.000802937
0.00310504
0.000868639
0.000905355
0.000940921
0.00346201
0.000932706
0.000900116
0.000854653
0.000802283
0.000743013
0.000668345
0.000600432
0.000550097
0.00296852
0.000453429
0.00041482
0.000394966
0.00039889
0.00041271
0.000430396
0.000448638
0.000469737
0.000499869
0.000547569
0.000602724
0.000668032
0.000715637
0.000755971
0.000791847
0.000809615
0.000822702
0.000816553
0.00278258
0.000695444
0.000631475
0.000557327
0.000480458
0.000396054
0.000309753
0.000229342
0.000172401
0.000130843
9.82119e-05
7.49483e-05
5.81382e-05
4.70826e-05
3.93996e-05
3.29666e-05
2.65328e-05
2.19197e-05
0.000129809
0.000111339
8.32182e-05
5.96696e-05
3.575e-05
2.27975e-05
4.84383e-05
0.000172619
0.000473699
0.000836756
0.00078985
0.000346075
0.000146503
0.000332168
0.000690071
0.00400415
0.00086876
0.000611471
0.00302709
0.000283921
0.000146945
9.32528e-05
0.00011563
0.000560485
0.000183259
0.000102519
9.94668e-05
0.000207602
0.000746449
8.52949e-05
4.53963e-05
5.82633e-05
0.000100744
0.000208849
0.000561539
0.00219799
0.0014361
0.0016281
0.00165085
0.00407979
0.00134043
0.00318963
0.00101319
0.00274061
0.00259904
0.000590927
0.000547493
0.000539184
0.000577167
0.00275049
0.000669033
0.000690483
0.000724862
0.000760361
0.000767858
0.000753627
0.000725895
0.000687863
0.000641154
0.000591637
0.00053613
0.000483377
0.000442022
0.00041153
0.000370019
0.000342745
0.000331046
0.000337794
0.000353456
0.000373983
0.000394455
0.000415207
0.000444909
0.000492292
0.000546793
0.000604696
0.000654096
0.000697027
0.000729383
0.000745525
0.000755922
0.000749638
0.000703862
0.000643491
0.00058796
0.000515862
0.00044475
0.00036418
0.000286287
0.000212771
0.000160913
0.000122314
9.26254e-05
7.08709e-05
5.56816e-05
4.5376e-05
3.80509e-05
3.18277e-05
2.60739e-05
2.15721e-05
0.000125864
9.2318e-05
5.07885e-05
2.67557e-05
1.17466e-05
8.93904e-06
3.27412e-05
0.000136824
0.00037854
0.000701554
0.000808735
0.000512087
0.000190785
0.000130055
0.000260408
0.000423909
0.000339054
0.000239298
0.00015254
4.68699e-05
2.20998e-05
2.00133e-05
1.72554e-05
1.53855e-05
7.462e-06
4.14193e-06
1.14274e-05
0.000131444
0.000675454
4.16275e-05
0.000384533
6.77488e-06
2.23736e-05
9.21469e-05
0.00032164
0.00148931
0.00109006
0.00341823
0.00125663
0.00111642
0.00100046
0.000843828
0.000689473
0.000570538
0.000469176
0.000399365
0.000377621
0.0026011
0.000425554
0.000485369
0.000497847
0.000522875
0.000557625
0.00059065
0.000597163
0.000590045
0.000570096
0.000541588
0.00339817
0.000462777
0.000424596
0.00325772
0.000353205
0.000328617
0.00029867
0.000280273
0.000275057
0.000285139
0.000302665
0.000323321
0.000344035
0.000365216
0.000396508
0.000440368
0.000491636
0.000548945
0.000594735
0.000635579
0.000670001
0.000688519
0.000700525
0.000693138
0.000647796
0.000595204
0.000542606
0.000475041
0.000410162
0.000335214
0.000261982
0.000196982
0.00014944
0.00011426
8.70666e-05
6.70892e-05
5.31036e-05
4.36563e-05
3.66346e-05
3.08695e-05
2.54925e-05
2.12159e-05
0.000116833
5.82932e-05
1.89892e-05
6.86816e-06
3.31745e-06
5.51429e-06
2.66091e-05
0.000118233
0.000329623
0.000610439
0.000760202
0.00060123
0.000299103
0.000127599
0.000100142
9.41924e-05
7.53998e-05
5.5845e-05
3.90459e-05
2.83704e-05
2.50255e-05
2.05003e-05
1.62822e-05
1.19106e-05
1.44054e-05
1.34691e-05
0.000454057
2.43019e-05
0.000523447
0.000371971
4.56375e-07
5.35154e-07
9.24848e-07
3.21808e-05
0.000160848
0.00043241
0.000776165
0.0025009
0.000870546
0.000794795
0.000671931
0.000519234
0.000422779
0.000348132
0.00286273
0.000253347
0.000246782
0.0002748
0.000301777
0.000345683
0.000357123
0.000382457
0.000415068
0.000445483
0.000452838
0.000449746
0.000437873
0.000418069
0.000392389
0.0003581
0.000332341
0.000307916
0.000278929
0.000259958
0.000239718
0.000228341
0.000227754
0.000238892
0.00025631
0.000277356
0.000301343
0.000319982
0.000350319
0.000392943
0.000441108
0.000493379
0.0005399
0.000580113
0.000611502
0.000628652
0.000641241
0.000632627
0.000597503
0.000548671
0.000496391
0.000438689
0.000375484
0.000307188
0.000239524
0.000182012
0.000138571