/*--------------------------------*- C++ -*----------------------------------*\
  =========                 |
  \\      /  F ield         | OpenFOAM: The Open Source CFD Toolbox
   \\    /   O peration     | Website:  https://openfoam.org
    \\  /    A nd           | Version:  6
     \\/     M anipulation  |
\*---------------------------------------------------------------------------*/
FoamFile
{
    version     2.0;
    format      ascii;
    class       volScalarField;
    location    "0.1";
    object      C2H6;
}
// * * * * * * * * * * * * * * * * * * * * * * * * * * * * * * * * * * * * * //

dimensions      [0 0 0 0 0 0 0];

internalField   nonuniform List<scalar> 
8000
(
2.91566e-06
1.46913e-05
5.57365e-05
0.000239282
0.000462305
0.000272841
0.000109924
4.28012e-05
1.93665e-05
9.87318e-06
5.24556e-06
4.39994e-06
6.88914e-06
1.68467e-05
1.68254e-05
1.76378e-05
1.82259e-05
0.000957247
2.89758e-05
2.40968e-05
2.22753e-05
1.98687e-05
3.55398e-05
0.00017635
0.000555562
0.000894236
0.00101371
0.000982984
0.000940484
0.00131442
0.00102321
0.000411943
0.000193108
9.84211e-05
6.15126e-05
4.69751e-05
4.33713e-05
4.99931e-05
8.205e-05
0.000136058
9.9058e-05
8.3699e-05
9.37661e-05
0.000131392
0.000207064
0.000354858
0.000591749
0.000893293
0.00124979
0.00171022
0.00140702
0.00158078
0.00154692
0.00155085
0.00155522
0.0015595
0.00156232
0.0015653
0.00157028
0.00157424
0.00151181
0.00145562
0.00128042
0.00100384
0.000839171
0.000557412
0.000612954
0.000477466
0.000442628
0.000421873
0.000541306
0.000364305
0.000368579
0.000335395
0.000341977
0.000385406
0.000384545
0.000398534
0.000423229
0.000433509
0.000409357
0.000404648
0.000374942
0.000323508
0.000272733
0.000220265
0.000178206
0.000148204
0.000197182
9.57277e-05
7.19133e-05
5.34794e-05
4.12945e-05
3.33184e-05
2.11349e-05
1.5942e-05
1.31535e-05
1.12745e-05
1.05815e-05
6.92683e-06
2.85755e-06
1.52185e-05
5.93793e-05
0.000263766
0.000576194
0.000274798
0.000103237
4.05347e-05
1.83239e-05
9.23523e-06
4.95131e-06
4.75761e-06
9.18258e-06
2.48769e-05
2.32142e-05
2.00385e-05
2.12268e-05
2.47787e-05
2.55968e-05
2.61444e-05
2.33159e-05
2.13103e-05
4.216e-05
0.000195907
0.000585919
0.000941936
0.00103226
0.00098841
0.000904179
0.000926099
0.000582809
0.00035301
0.000183963
0.000106618
7.78487e-05
6.47072e-05
5.96523e-05
6.54653e-05
0.000101774
0.000418315
0.000133054
0.000100022
0.000107871
0.000147063
0.000225705
0.000377954
0.000613543
0.000903808
0.00123606
0.00138255
0.001504
0.00153154
0.00154976
0.00155222
0.00155601
0.00155985
0.00156277
0.00156615
0.00157085
0.00157407
0.00150619
0.0014478
0.00126942
0.00101191
0.000723181
0.000552525
0.00060853
0.000475115
0.000440871
0.000419067
0.000404822
0.000361861
0.00036799
0.000333327
0.000340264
0.000384824
0.000383085
0.000397433
0.000421681
0.000433805
0.000408314
0.000404368
0.000373817
0.000322398
0.000272911
0.000219754
0.000177785
0.000147914
0.000123798
9.55064e-05
7.18042e-05
5.33862e-05
4.12316e-05
3.33151e-05
2.10911e-05
1.5915e-05
1.31354e-05
1.1259e-05
1.05934e-05
6.91584e-06
3.19895e-06
1.76461e-05
9.22959e-05
0.000330638
0.000306383
0.000173702
7.36691e-05
4.80973e-05
2.2142e-05
9.68159e-06
9.73851e-06
5.09145e-06
1.15367e-05
3.26391e-05
4.29387e-05
2.56383e-05
2.17822e-05
2.44568e-05
2.93963e-05
0.000179683
2.90801e-05
2.55372e-05
5.8549e-05
0.00023917
0.000644645
0.0010571
0.00108674
0.00100068
0.0008637
0.000706245
0.000511277
0.000318294
0.000185411
0.000128153
0.000119034
0.000117539
0.000103124
0.00010638
0.000119573
0.000141879
0.000124216
0.000121484
0.000136207
0.000180165
0.00026505
0.0004271
0.000663009
0.000952542
0.00124482
0.00138197
0.00146086
0.0015426
0.00155446
0.00155515
0.00155746
0.00156068
0.0015639
0.00156758
0.00157151
0.00154144
0.00149398
0.0014302
0.00124559
0.000958358
0.000719686
0.000542121
0.000491452
0.000469794
0.000437224
0.000413364
0.000395219
0.000357358
0.00044824
0.00032872
0.000336585
0.000485405
0.000379884
0.000395047
0.000418345
0.00055618
0.00040598
0.000403787
0.00037125
0.00032016
0.000342916
0.000218616
0.000176921
0.000147289
0.000122036
9.50686e-05
7.15671e-05
5.31821e-05
5.60984e-05
4.58459e-05
2.09938e-05
1.58561e-05
1.30954e-05
1.12248e-05
2.43614e-05
6.89154e-06
4.16416e-06
2.11189e-05
0.000156311
0.000223164
0.000170385
0.000100389
4.57072e-05
2.15041e-05
1.1084e-05
5.38794e-06
3.37156e-06
3.75855e-06
8.22154e-06
5.05387e-05
0.000994775
2.91989e-05
2.04319e-05
2.24397e-05
2.59769e-05
2.93929e-05
2.47853e-05
2.80689e-05
8.51557e-05
0.000311218
0.000708169
0.00128844
0.00115347
0.00101375
0.000849854
0.000654315
0.000487351
0.000316606
0.000205889
0.000161249
0.000178705
0.000400646
0.00017943
0.000272584
0.000174837
0.000174402
0.000163262
0.000170026
0.00018435
0.000230176
0.000338097
0.000531577
0.000756213
0.00102607
0.00127872
0.0013992
0.00147764
0.00155357
0.00146302
0.00155768
0.00155897
0.00156195
0.00156551
0.00156914
0.00157044
0.00150949
0.00147565
0.001347
0.00121021
0.000892189
0.000718523
0.000527374
0.000480169
0.000461241
0.000432377
0.000405462
0.00049383
0.000338138
0.00033947
0.000321523
0.000331151
0.000371203
0.000375039
0.000391519
0.000413502
0.000421022
0.000402318
0.000402995
0.000367122
0.000317253
0.000265529
0.00021683
0.000175634
0.00014636
0.00012054
9.44459e-05
7.12103e-05
5.28773e-05
4.05288e-05
3.19447e-05
2.08398e-05
1.57674e-05
1.30354e-05
1.11726e-05
1.00794e-05
6.85291e-06
3.78822e-06
2.37348e-05
0.00125528
0.000295807
0.000116696
5.99748e-05
2.66685e-05
1.28334e-05
6.49927e-06
3.31823e-06
5.57677e-06
5.43352e-06
6.05824e-06
2.52372e-05
3.32773e-05
2.30527e-05
1.78341e-05
2.07756e-05
2.44423e-05
2.45875e-05
2.21783e-05
3.70359e-05
0.000142125
0.000415155
0.000775865
0.00109287
0.00109665
0.00100775
0.000847698
0.000667009
0.000502652
0.000347714
0.000248015
0.000202343
0.000194184
0.00019118
0.000178867
0.000190889
0.000221805
0.000427793
0.000236639
0.000249795
0.000256898
0.000309899
0.000414202
0.000632579
0.00087004
0.00110274
0.00132093
0.00143369
0.00148853
0.00155209
0.00159764
0.00155858
0.00156028
0.00156356
0.00156763
0.0015699
0.00153072
0.0014892
0.00145021
0.00130556
0.00116465
0.000795371
0.00064657
0.000622953
0.000466108
0.000448835
0.000549239
0.000396036
0.00037698
0.000327131
0.000322103
0.000312458
0.000324225
0.000360437
0.000368977
0.000386943
0.000407332
0.000411005
0.000397705
0.00051049
0.000361301
0.000409616
0.000260089
0.000214529
0.000173931
0.00014514
0.000118946
9.36487e-05
7.07376e-05
5.24779e-05
3.99796e-05
3.08722e-05
2.06438e-05
1.56506e-05
1.29557e-05
1.11034e-05
9.66177e-06
6.80539e-06
3.06369e-06
3.52095e-05
0.000481945
0.000139625
6.08695e-05
3.30657e-05
1.57126e-05
1.32322e-05
4.16048e-06
2.62805e-06
2.37079e-06
2.96351e-06
4.38718e-06
1.92247e-05
2.20516e-05
2.09265e-05
2.84737e-05
2.59572e-05
3.80105e-05
2.28937e-05
2.3709e-05
6.03444e-05
0.000422654
0.000743031
0.000845013
0.00106162
0.00107063
0.00101852
0.00089776
0.000708658
0.000555756
0.000410703
0.000325838
0.00026458
0.000240184
0.000223536
0.00021708
0.000231657
0.000266942
0.000317626
0.000316319
0.000377918
0.000472406
0.000391474
0.00052886
0.000763707
0.00103127
0.00118339
0.00135166
0.00138717
0.00149133
0.00155091
0.00144595
0.0015601
0.00156151
0.00156507
0.00156765
0.00155991
0.00149205
0.00146114
0.0014159
0.0012533
0.00111152
0.000762247
0.000626494
0.00059902
0.000449891
0.000432435
0.000411542
0.000385417
0.000365677
0.000314137
0.000306331
0.000302571
0.000316062
0.000350477
0.00036182
0.0003814
0.000400181
0.000402856
0.000392301
0.000500246
0.000341659
0.000302053
0.000255456
0.000211757
0.000171836
0.000143697
0.000117263
9.26893e-05
7.01522e-05
5.19902e-05
3.94129e-05
4.27607e-05
2.04115e-05
1.55278e-05
1.28548e-05
1.10192e-05
9.32901e-06
6.75053e-06
2.29683e-06
1.88495e-05
8.46804e-05
6.11606e-05
2.8695e-05
1.86454e-05
1.69204e-05
1.61089e-05
7.65521e-06
2.79367e-06
2.80912e-06
3.86379e-06
7.79453e-06
1.42689e-05
1.62902e-05
1.62382e-05
2.00302e-05
2.27315e-05
2.33053e-05
2.22132e-05
3.68124e-05
0.00010318
0.000313168
0.000613448
0.000882443
0.00121662
0.00120099
0.00104156
0.0011226
0.000804762
0.000645644
0.000522221
0.000423163
0.000367558
0.000336252
0.000312276
0.000288142
0.000310728
0.000345551
0.000415748
0.000533576
0.000402693
0.000400085
0.00047412
0.000608089
0.000876735
0.00124647
0.00125582
0.00136101
0.00143378
0.0014796
0.00151669
0.00143724
0.00156076
0.00156058
0.00155945
0.001558
0.00139959
0.00146428
0.00142353
0.00136536
0.00119118
0.000938706
0.000803242
0.000749487
0.000467824
0.000431764
0.000413895
0.00039701
0.000374329
0.00035496
0.000300309
0.000292215
0.000291852
0.000306926
0.000324989
0.000353836
0.000374944
0.000392392
0.000504501
0.000386188
0.000382807
0.000329634
0.000291358
0.000251284
0.000208541
0.000169357
0.000211281
0.000115658
9.17772e-05
6.94586e-05
5.14219e-05
3.88172e-05
2.9038e-05
2.01422e-05
1.53811e-05
1.27351e-05
1.09221e-05
9.05515e-06
6.68881e-06
2.77061e-06
1.73815e-05
3.46347e-05
2.32959e-05
1.54643e-05
1.06738e-05
1.54314e-05
5.62361e-06
3.26155e-06
3.1177e-06
5.32452e-06
8.49962e-06
1.17408e-05
1.49527e-05
1.50144e-05
1.72407e-05
2.144e-05
2.32329e-05
2.24239e-05
2.20694e-05
3.42593e-05
0.000311774
0.000423675
0.000847388
0.000971334
0.00110897
0.0010929
0.0010646
0.000997837
0.000862843
0.000974368
0.000646307
0.00057439
0.000515075
0.000481406
0.00053806
0.000408234
0.00040963
0.000462091
0.000486528
0.000466297
0.000423508
0.000441545
0.000543186
0.000674251
0.000901955
0.00111086
0.00122045
0.00135787
0.00141865
0.00146483
0.00148983
0.00141945
0.00152452
0.00152261
0.00151952
0.00151521
0.00147175
0.00142667
0.00131008
0.00124537
0.00106596
0.000929066
0.000683616
0.000493944
0.000445158
0.000412565
0.000394107
0.000382925
0.0004554
0.000421339
0.000285816
0.000277996
0.000280569
0.000394001
0.000311183
0.000331959
0.000367462
0.000384357
0.000493153
0.000379478
0.00037251
0.000316615
0.000281314
0.000284757
0.000204936
0.000166516
0.000139737
0.000114035
9.07388e-05
6.87496e-05
5.07758e-05
3.81938e-05
2.82202e-05
1.98433e-05
1.5212e-05
1.25959e-05
1.08093e-05
8.82137e-06
6.62065e-06
1.28688e-06
1.07985e-05
1.8088e-05
1.52296e-05
8.82435e-06
5.41545e-06
4.62072e-06
3.38275e-06
3.27485e-06
4.24047e-06
7.62131e-06
1.41166e-05
2.3797e-05
2.0336e-05
2.34537e-05
2.49241e-05
3.96677e-05
2.50696e-05
4.36198e-05
2.64301e-05
4.88116e-05
0.000149716
0.000370655
0.000683394
0.00119419
0.00126469
0.00111515
0.00109146
0.00118775
0.000935524
0.00084826
0.000789767
0.000774201
0.000723389
0.000647719
0.000600969
0.000740706
0.000558039
0.000597211
0.000744142
0.000529854
0.000509925
0.000543243
0.000624965
0.000739226
0.000926763
0.00110097
0.00122343
0.00135469
0.00140381
0.0014349
0.00146725
0.00148074
0.00148963
0.0013887
0.00147846
0.00147143
0.00143671
0.00137293
0.00123476
0.0011181
0.000941492
0.000713011
0.000778095
0.000572357
0.000422425
0.000392814
0.00037353
0.000473191
0.000343609
0.000301791
0.000270022
0.000263931
0.000268862
0.000283693
0.000297644
0.000319261
0.000358538
0.00047849
0.000375108
0.000467068
0.000446892
0.000303818
0.000271396
0.00027831
0.000200704
0.000163341
0.000137138
0.00011229
8.95134e-05
6.79926e-05
5.00602e-05
3.73961e-05
2.74792e-05
1.95156e-05
1.50198e-05
1.24416e-05
1.06829e-05
8.61379e-06
6.54559e-06
5.39327e-07
5.43018e-06
9.64437e-06
1.09035e-05
4.35816e-06
3.10014e-06
4.98298e-06
3.19791e-06
5.01706e-06
9.82679e-06
1.08808e-05
2.21382e-05
2.80534e-05
4.42314e-05
2.60134e-05
2.49798e-05
2.65044e-05
2.75216e-05
4.17916e-05
4.7859e-05
0.000145824
0.00019012
0.00038578
0.000678105
0.000968588
0.00123527
0.00111593
0.00109814
0.00106682
0.00099479
0.000950966
0.000939041
0.00105893
0.00116024
0.00105012
0.000832525
0.000775927
0.000743071
0.000728943
0.000690137
0.000620687
0.000602317
0.00063975
0.000719997
0.000849754
0.000981868
0.00111613
0.00122991
0.00135284
0.00138702
0.0014081
0.00141953
0.00144909
0.00146139
0.00145488
0.00144726
0.00135019
0.0013365
0.0012416
0.0011492
0.00106918
0.000787723
0.000630909
0.000478096
0.00056346
0.000524406
0.000372641
0.000352977
0.000438523
0.000304642
0.000277209
0.000254018
0.000251205
0.000256877
0.000270005
0.000284469
0.000401529
0.000426907
0.000364835
0.000363108
0.000359257
0.000335687
0.000291819
0.000261476
0.000231169
0.000190356
0.000159863
0.000134338
0.000110428
8.81721e-05
6.71674e-05
4.92867e-05
3.65747e-05
2.67695e-05
1.91807e-05
1.48062e-05
1.22763e-05
1.05404e-05
8.42641e-06
6.46232e-06
8.39029e-08
3.49389e-06
7.58349e-06
7.23282e-06
2.95558e-06
2.82344e-06
3.31947e-06
4.88288e-06
7.10737e-06
1.12935e-05
2.04948e-05
3.94516e-05
2.90221e-05
4.68735e-05
2.94442e-05
2.7529e-05
5.36726e-05
2.69363e-05
3.29662e-05
6.05017e-05
0.000121881
0.00024154
0.000451058
0.000694492
0.000923639
0.00110007
0.00113041
0.00111257
0.00109812
0.001073
0.00104908
0.00105544
0.00110412
0.00108181
0.00103544
0.00116914
0.00100563
0.00113065
0.000918364
0.00103815
0.000781032
0.000735897
0.000768661
0.00086171
0.000951115
0.00104482
0.00113272
0.00122787
0.00130666
0.00136566
0.00137286
0.00137734
0.00137815
0.0014262
0.00133279
0.00140323
0.00134787
0.00125322
0.0011552
0.00105785
0.000854965
0.000861829
0.00055972
0.000549567
0.000405051
0.000371911
0.000352674
0.000332354
0.000306898
0.000376885
0.000254952
0.000240153
0.000238922
0.000245502
0.000256799
0.000271847
0.00029162
0.000319955
0.000353448
0.000429417
0.000333644
0.000316169
0.000279696
0.000252151
0.000221738
0.000185232
0.000156097
0.000131372
0.000108366
0.000120456
6.62561e-05
4.84937e-05
3.57261e-05
2.60851e-05
1.88416e-05
1.45742e-05
1.2089e-05
1.03861e-05
8.19829e-06
6.37297e-06
3.9123e-07
3.07675e-06
4.87332e-06
5.4405e-06
4.02628e-06
5.87253e-06
6.42059e-06
9.53538e-06
1.31835e-05
1.64024e-05
2.50749e-05
2.83578e-05
3.50183e-05
0.000262287
3.32875e-05
2.93382e-05
2.77187e-05
2.56959e-05
4.62356e-05
0.000188548
0.000166757
0.000331274
0.000727518
0.000741019
0.00092053
0.00121876
0.0012633
0.00113386
0.00116544
0.0012433
0.00115132
0.0011457
0.00115097
0.00113368
0.00110919
0.00113502
0.00110619
0.00113061
0.00115405
0.00100374
0.000935376
0.000892667
0.000916604
0.00100485
0.00107419
0.00110282
0.00114878
0.00120216
0.00126299
0.00133281
0.00129163
0.00129331
0.00129614
0.00132676
0.00130619
0.0012793
0.00123891
0.0011613
0.00106283
0.000855624
0.000660799
0.000837425
0.000450497
0.00041368
0.000377646
0.000346127
0.000419082
0.000392489
0.000274525
0.000255204
0.000236144
0.000226436
0.000226593
0.000233928
0.000245024
0.000259179
0.000277264
0.000301673
0.000329868
0.000323006
0.000315747
0.000298982
0.000267609
0.000242679
0.000213492
0.00017982
0.000152108
0.000128278
0.000106259
8.46612e-05
6.52519e-05
6.58474e-05
3.48543e-05
2.54212e-05
1.8488e-05
1.43201e-05
1.1884e-05
1.02168e-05
8.0144e-06
6.27543e-06
4.20732e-07
1.71224e-06
2.83652e-06
5.1553e-06
9.51721e-06
1.00791e-05
1.4073e-05
1.75899e-05
2.00587e-05
2.35037e-05
2.84026e-05
3.59794e-05
3.86162e-05
8.34159e-05
3.55822e-05
3.10252e-05
2.84478e-05
2.58392e-05
4.17772e-05
0.000105586
0.000212524
0.000431403
0.000908786
0.000789776
0.000926277
0.00117401
0.00111506
0.00111814
0.00129018
0.0012143
0.00127838
0.00121941
0.00123955
0.00123321
0.0011935
0.00118576
0.00120295
0.00120319
0.00114442
0.00111474
0.00119775
0.0011667
0.00105705
0.0011215
0.00124083
0.00112917
0.00114344
0.00121843
0.00115918
0.00127328
0.00124997
0.00125031
0.00124401
0.0012468
0.00127894
0.00121655
0.00114598
0.00102508
0.000880463
0.000698319
0.000569202
0.000667337
0.000593299
0.000385393
0.000467027
0.000321544
0.000394561
0.000263343
0.000247446
0.000232903
0.000219791
0.000213289
0.000214681
0.000222271
0.000233435
0.000247403
0.000263861
0.000285015
0.000408196
0.000304231
0.000298474
0.00037848
0.000255949
0.000233114
0.000205481
0.000174572
0.000148013
0.00012508
0.000104135
8.23678e-05
8.78924e-05
4.66056e-05
3.3961e-05
2.47789e-05
1.81114e-05
1.40466e-05
1.16646e-05
9.96993e-06
7.83422e-06
6.17465e-06
5.38632e-06
2.51938e-06
6.09239e-06
1.37752e-05
3.07757e-05
2.27894e-05
2.28784e-05
3.80303e-05
4.49668e-05
4.18246e-05
3.91435e-05
4.29134e-05
4.42677e-05
5.21751e-05
3.18261e-05
3.38866e-05
3.05453e-05
2.8554e-05
6.39714e-05
0.000241883
0.000282587
0.000703515
0.000809921
0.00082156
0.000910535
0.00100489
0.00107052
0.00109029
0.00113917
0.00117146
0.00120237
0.00122545
0.00126597
0.00129622
0.00126019
0.00125554
0.00126056
0.00126546
0.00126361
0.00116376
0.00115002
0.00112509
0.0011388
0.00119815
0.00125897
0.00112059
0.00108316
0.00105317
0.00106051
0.00108408
0.00104124
0.00103102
0.00104818
0.00118854
0.00116375
0.00109546
0.00104683
0.000839472
0.000709981
0.000571148
0.000434545
0.000409336
0.000514322
0.000357527
0.000325073
0.000284982
0.000261139
0.00023728
0.000226405
0.000214384
0.000205463
0.00020147
0.000203777
0.000211389
0.000222025
0.000235936
0.000250901
0.000269137
0.000294248
0.00028733
0.000282997
0.000269638
0.000245141
0.000278994
0.000192488
0.000252648
0.000214755
0.000121733
0.000101863
8.00049e-05
6.2266e-05
4.54209e-05
3.30426e-05
2.41804e-05
1.77174e-05
1.37541e-05
1.14274e-05
9.71948e-06
7.65459e-06
6.07828e-06
8.12827e-06
2.84002e-05
2.06279e-05
4.78876e-05
9.55717e-05
2.79748e-05
4.91119e-05
3.29361e-05
3.51456e-05
4.5111e-05
3.26292e-05
3.44078e-05
4.58327e-05
2.84512e-05
2.19175e-05
3.6372e-05
3.36734e-05
2.96003e-05
6.58446e-05
0.000325218
0.000354726
0.00055791
0.000881452
0.000770081
0.00089616
0.000979284
0.00118667
0.00104583
0.00106572
0.00111878
0.00117456
0.00118627
0.0012636
0.00123746
0.00128402
0.00129402
0.00130404
0.0013293
0.0012867
0.00119659
0.00118786
0.00119813
0.00120998
0.00122659
0.0011636
0.001061
0.000999804
0.00095598
0.000952229
0.00112348
0.000954068
0.000939745
0.000935864
0.000941432
0.000917787
0.000843625
0.000837719
0.000737157
0.000582572
0.000661266
0.000504106
0.000379355
0.000356253
0.000330099
0.00029489
0.000254524
0.000232476
0.000215353
0.0002814
0.000198944
0.000186902
0.000184425
0.000187843
0.000200995
0.000211486
0.000224482
0.000239213
0.000254212
0.000370697
0.000271323
0.000267783
0.000255568
0.000234449
0.000213929
0.000184356
0.000163786
0.000140229
0.000118778
9.94658e-05
7.75576e-05
8.31018e-05
4.42536e-05
3.21436e-05
2.35809e-05
1.7377e-05
1.3477e-05
1.11756e-05
9.45717e-06
7.47557e-06
5.97226e-06
9.05487e-07
5.22726e-05
4.16e-05
4.279e-05
6.57811e-05
2.75372e-05
2.88297e-05
3.61791e-05
3.09637e-05
4.11367e-05
4.34168e-05
3.04535e-05
5.01488e-05
5.43726e-05
4.55471e-05
3.1863e-05
3.58702e-05
4.2518e-05
7.54259e-05
0.000173294
0.000480999
0.000629692
0.000616658
0.000880277
0.00104027
0.00113876
0.00112766
0.000957622
0.00097212
0.00105448
0.00121145
0.00123101
0.00112492
0.00112951
0.00117838
0.00130485
0.00130906
0.00129431
0.00125432
0.00126637
0.00122746
0.00124862
0.00127969
0.00118695
0.00118773
0.000971943
0.0010629
0.000837957
0.000851653
0.000868339
0.000863778
0.000856268
0.000824483
0.000818085
0.000771957
0.000740623
0.000641161
0.000642212
0.000652813
0.000488217
0.000491316
0.000465024
0.00032018
0.000301574
0.000254208
0.000223512
0.000204837
0.000193449
0.000183316
0.000176371
0.0001722
0.000171668
0.000175403
0.000183608
0.000284071
0.000211513
0.000225559
0.000286064
0.000253945
0.00032758
0.000250754
0.000241059
0.000221899
0.000202874
0.000175292
0.000235464
0.00013513
0.000115175
9.67445e-05
0.000104021
5.75358e-05
4.28287e-05
3.11403e-05
2.28547e-05
1.6962e-05
1.31869e-05
1.08481e-05
9.13218e-06
7.25612e-06
5.84177e-06
9.10367e-07
2.14867e-06
3.32945e-05
4.77901e-05
3.9058e-05
2.66759e-05
2.97058e-05
6.33489e-05
4.9673e-05
4.90299e-05
7.26005e-05
6.32463e-05
6.47461e-05
5.95314e-05
3.16591e-05
4.27709e-05
4.62836e-05
8.4926e-05
0.000201621
0.000207189
0.000324916
0.000424708
0.000535798
0.00068683
0.00102321
0.0010424
0.00103557
0.000873845
0.00102358
0.000917669
0.000956536
0.000979128
0.000992807
0.00103353
0.00107247
0.0011117
0.00112794
0.00115311
0.00126333
0.00123283
0.00127441
0.00130059
0.00127438
0.00111974
0.000972674
0.00085418
0.000703137
0.000640724
0.000633882
0.000634214
0.000564006
0.00067697
0.000665808
0.000659884
0.000507198
0.000486315
0.000652224
0.000575351
0.00037577
0.00047198
0.000443866
0.000402789
0.000283774
0.000251576
0.000218129
0.00019453
0.000175795
0.000167887
0.000163713
0.000160714
0.000158726
0.00015902
0.000163321
0.000170891
0.000180526
0.000197699
0.00020975
0.000220552
0.000232873
0.000234098
0.000233507
0.000225124
0.000208634
0.000185302
0.000166026
0.000148177
0.000129139
0.000110599
9.2934e-05
7.14131e-05
5.43008e-05
4.08078e-05
2.99332e-05
2.19878e-05
1.64755e-05
1.28361e-05
1.04426e-05
8.80269e-06
6.99247e-06
5.67289e-06
2.76749e-06
8.44969e-07
8.85726e-06
2.78179e-05
2.43398e-05
1.28093e-05
1.85085e-05
3.64048e-05
3.82707e-05
5.84661e-05
0.00024593
0.0001046
8.61421e-05
7.69453e-05
5.46753e-05
7.79976e-05
8.05384e-05
0.000120115
0.000398717
0.00032704
0.000485579
0.000406814
0.000483964
0.000644779
0.000886685
0.000748833
0.000732687
0.000736333
0.000864727
0.000785148
0.000992523
0.0010223
0.000883908
0.000972743
0.00110287
0.000953336
0.00100001
0.00105819
0.00113768
0.00124126
0.00117175
0.00116322
0.00110792
0.00113452
0.000858106
0.00067669
0.000598775
0.000510671
0.000439439
0.000414429
0.000421202
0.000557864
0.000423828
0.000562911
0.000403044
0.000518529
0.000508947
0.000479608
0.000330349
0.00030785
0.00028624
0.000266949
0.000236633
0.00021368
0.000285895
0.000167882
0.000156585
0.000150582
0.000230366
0.000228219
0.000146281
0.00014729
0.000151471
0.000159232
0.00016835
0.000179093
0.000195366
0.000204473
0.000213799
0.000216097
0.000216157
0.000209992
0.000283213
0.000173476
0.000156806
0.000141011
0.000123225
0.000105836
8.87736e-05
9.56154e-05
5.15159e-05
3.87886e-05
2.87051e-05
2.11048e-05
1.59734e-05
1.24631e-05
1.01057e-05
8.47531e-06
6.73643e-06
5.48702e-06
3.09406e-06
1.62791e-06
4.73117e-06
8.04229e-06
7.05685e-06
4.82654e-06
9.3429e-06
1.84717e-05
2.65768e-05
5.72226e-05
0.000142104
0.000173302
0.00013136
0.000122035
0.000134794
0.000117353
0.000151381
0.000320659
0.000235776
0.000291283
0.00035455
0.000561875
0.000621701
0.000708638
0.000775677
0.000645514
0.000630663
0.000606124
0.000574297
0.000619908
0.000760816
0.000640075
0.000691682
0.000934505
0.000755144
0.000790217
0.00103118
0.000939386
0.000995303
0.00104647
0.00106291
0.00115648
0.000946826
0.000837541
0.00067254
0.000614752
0.000510049
0.000363004
0.000353989
0.000355192
0.000366007
0.000497923
0.000495899
0.000365153
0.00035442
0.000344829
0.000333624
0.000310563
0.000288937
0.000276941
0.000249223
0.000289317
0.000201755
0.000277889
0.000162914
0.000149419
0.000141109
0.000136979
0.000135455
0.000135318
0.000202807
0.000137167
0.000141657
0.000148547
0.000156864
0.000167654
0.000176504
0.000185156
0.000197649
0.000286661
0.000200865
0.00019639
0.000178059
0.000163497
0.000148179
0.000133741
0.000118132
0.00010105
8.40837e-05
6.43399e-05
4.87908e-05
3.68096e-05
2.73866e-05
2.02403e-05
1.54671e-05
1.20615e-05
9.80362e-06
8.1391e-06
6.48148e-06
5.29061e-06
2.95168e-06
2.74828e-06
5.073e-06
6.95032e-06
8.00429e-06
1.05798e-05
1.21695e-05
1.24941e-05
1.9085e-05
5.77761e-05
0.00012804
0.000313568
0.000199589
0.000330275
0.000181484
0.000207902
0.000247042
0.000271865
0.000281287
0.000284146
0.000316979
0.000520925
0.000371947
0.000447941
0.000520673
0.000545587
0.000575404
0.000607939
0.000420433
0.000559268
0.000420229
0.000421945
0.000571589
0.000552433
0.000706201
0.000669104
0.000764172
0.000817127
0.0008805
0.000929174
0.000926145
0.000871169
0.000745807
0.000633501
0.000542368
0.00039354
0.000324077
0.000292621
0.000285589
0.000290284
0.000406227
0.0004143
0.000417763
0.000316254
0.00040626
0.00029844
0.000299573
0.000364027
0.000252214
0.000231676
0.000210869
0.000189808
0.000172186
0.000158194
0.000144726
0.000133796
0.000127488
0.000124652
0.000123828
0.000124225
0.000125386
0.000127059
0.00013171
0.000138903
0.00014683
0.000156609
0.000251653
0.000171525
0.000177683
0.000180642
0.000181354
0.000177499
0.00025628
0.000153389
0.000140623
0.000126575
0.000112636
9.65497e-05
7.92447e-05
6.03791e-05
4.6034e-05
3.50966e-05
2.60549e-05
1.93755e-05
1.49398e-05
1.16318e-05
9.52757e-06
7.91642e-06
6.21188e-06
5.08235e-06
2.92151e-06
3.13939e-06
4.40049e-06
7.15442e-06
9.78409e-06
1.14896e-05
1.39173e-05
1.63315e-05
1.81578e-05
3.7535e-05
0.000144306
0.000211705
0.00031177
0.000328803
0.000309644
0.00040923
0.000434127
0.000516844
0.000352259
0.000300068
0.000280137
0.000263898
0.000288996
0.000352698
0.000410035
0.000601768
0.000414663
0.000351089
0.000300994
0.000293913
0.000284895
0.000296725
0.000322515
0.000357518
0.000416257
0.000565197
0.000660637
0.000836239
0.000763263
0.00078893
0.000793264
0.000691544
0.000618943
0.000510543
0.000370356
0.000288862
0.000301409
0.000233008
0.000228552
0.000233174
0.000243536
0.000249643
0.000256008
0.000262699
0.000259633
0.000252095
0.000240684
0.000227266
0.000212751
0.000194224
0.000178738
0.000164404
0.000151501
0.000140228
0.000190395
0.000120193
0.000114002
0.000112251
0.000112589
0.000114241
0.00011604
0.000118421
0.000122948
0.000129334
0.000137356
0.000146639
0.000153752
0.00016002
0.000165194
0.000167168
0.000168153
0.000165617
0.000155947
0.000144708
0.000133017
0.000120789
0.000106615
0.000131183
7.5035e-05
5.68383e-05
4.32542e-05
3.31025e-05
2.46321e-05
1.85055e-05
1.42756e-05
1.11865e-05
9.23972e-06
7.6973e-06
5.97121e-06
4.85064e-06
3.02219e-06
3.38031e-06
3.55031e-06
5.06455e-06
6.28393e-06
6.03001e-06
7.8527e-06
1.35263e-05
1.85832e-05
2.65977e-05
7.34343e-05
0.000212494
0.000327639
0.000633806
0.000404083
0.000662106
0.000633648
0.000393293
0.000513947
0.000286345
0.000445673
0.00020942
0.000221895
0.000283221
0.000513293
0.000520414
0.00032441
0.000362627
0.00022178
0.000205073
0.000211927
0.000223203
0.000307791
0.000262135
0.000316972
0.000402764
0.000668755
0.000636619
0.000669644
0.000788312
0.000659007
0.000601014
0.000480429
0.000287312
0.000260627
0.000224893
0.000198886
0.000187092
0.000184511
0.000188819
0.000289979
0.000201492
0.000207232
0.000292773
0.000295516
0.000208706
0.000198916
0.00018869
0.000260649
0.000167066
0.000155908
0.000144301
0.00013392
0.00012437
0.000114848
0.000106516
0.00010171
0.000100965
0.000101904
0.000104213
0.000150051
0.000108893
0.000113907
0.000120977
0.000128351
0.000137266
0.000143933
0.000149065
0.000153499
0.000155511
0.000246058
0.000244239
0.000145861
0.000136341
0.000125767
0.000114114
0.000101138
8.63361e-05
7.02461e-05
5.35036e-05
4.05854e-05
3.11811e-05
2.32429e-05
1.76508e-05
1.36172e-05
1.08048e-05
8.9285e-06
7.44955e-06
5.82742e-06
4.65045e-06
3.1896e-06
3.56638e-06
3.30881e-06
3.44996e-06
3.40534e-06
2.78017e-06
3.4961e-06
7.24882e-06
1.3743e-05
1.85938e-05
3.66473e-05
8.45996e-05
0.000229028
0.00031804
0.000367435
0.000435875
0.00040868
0.000318997
0.00028
0.000217223
0.000174897
0.000149685
0.000252552
0.000206699
0.000253653
0.000318003
0.000292338
0.000215399
0.000197331
0.000160134
0.000139994
0.000156831
0.000178513
0.000210357
0.00025432
0.000304454
0.000346785
0.000576575
0.000593671
0.000568511
0.000510688
0.00025817
0.000278297
0.000248421
0.000203248
0.000250717
0.00016352
0.00015681
0.000155835
0.00015929
0.000250233
0.00016699
0.00017193
0.000175686
0.00017631
0.000174642
0.000169147
0.000162475
0.000155544
0.000206286
0.000136312
0.000125584
0.000116749
0.000108505
9.95698e-05
9.28028e-05
8.93326e-05
8.92423e-05
9.09493e-05
9.41165e-05
9.72457e-05
0.00010022
0.000105059
0.000111942
0.00012006
0.000128247
0.000134123
0.000139594
0.000143571
0.000145089
0.000146074
0.00022801
0.000136969
0.000127835
0.000118852
0.000106949
9.50697e-05
8.11329e-05
6.54053e-05
5.00933e-05
3.81889e-05
2.929e-05
2.19956e-05
1.67919e-05
1.29454e-05
1.04122e-05
8.62674e-06
7.19214e-06
5.66519e-06
4.58513e-06
3.39117e-06
3.53236e-06
3.41346e-06
2.83636e-06
2.017e-06
1.17181e-06
1.36285e-06
3.37016e-06
8.059e-06
1.29009e-05
1.76487e-05
4.37655e-05
0.000102618
0.00019241
0.000263759
0.000300159
0.000467612
0.000342519
0.000190593
0.000207453
0.00010715
9.57905e-05
0.000113585
0.000144813
0.000175696
0.000215607
0.000145132
0.000151758
0.000123091
7.94654e-05
6.78657e-05
9.33345e-05
0.000124261
0.00014319
0.000215092
0.000280291
0.000303761
0.000459745
0.000293934
0.000440575
0.000245333
0.000242493
0.000232408
0.000264198
0.000164979
0.000146648
0.000181649
0.000131365
0.000181261
0.000137775
0.000203131
0.000143988
0.000148115
0.000151504
0.000216722
0.000150498
0.000146326
0.000140553
0.000133857
0.000126458
0.000117174
0.00010751
9.99312e-05
0.000130335
8.57229e-05
8.03314e-05
7.7826e-05
7.87454e-05
8.11366e-05
8.43456e-05
8.72705e-05
9.11628e-05
9.64146e-05
0.000103637
0.00011113
0.000119613
0.000125452
0.000129976
0.000134027
0.000135765
0.000136761
0.00013534
0.000194941
0.000120669
0.00011154
0.000100717
8.85242e-05
7.5616e-05
6.11062e-05
4.66515e-05
3.57887e-05
2.73812e-05
2.07641e-05
1.59201e-05
1.23688e-05
9.99529e-06
8.32576e-06
6.93067e-06
5.53267e-06
4.5056e-06
3.58667e-06
3.48377e-06
2.66881e-06
1.87962e-06
1.54665e-06
8.39375e-07
8.08744e-07
1.82554e-06
4.85144e-06
8.79625e-06
1.09401e-05
1.69609e-05
4.37538e-05
9.43617e-05
0.000153274
0.000220215
0.00016031
0.000126163
0.000166068
8.22096e-05
5.58118e-05
4.72895e-05
5.73366e-05
6.52199e-05
8.49319e-05
7.497e-05
7.22431e-05
9.42808e-05
8.98973e-05
5.38458e-05
3.95358e-05
4.56314e-05
6.17642e-05
9.54813e-05
0.000172589
0.000252225
0.000293175
0.000291233
0.000280879
0.000301377
0.000225163
0.000264207
0.00017859
0.0001995
0.00017132
0.000116362
0.00010898
0.000106693
0.000110258
0.000159595
0.000119821
0.000122474
0.000126242
0.000129871
0.000130528
0.000128804
0.000124915
0.000119634
0.00011337
0.000106671
9.90762e-05
9.09891e-05
8.41817e-05
7.91477e-05
7.28632e-05
6.89214e-05
6.74375e-05
6.86962e-05
7.14238e-05
7.52373e-05
7.87556e-05
8.25396e-05
8.75892e-05
9.51241e-05
0.000102937
0.000110331
0.00011676
0.000121922
0.000125439
0.000126838
0.000127347
0.00012586
0.000120755
0.000112835
0.000104811
9.40101e-05
8.26591e-05
6.99089e-05
5.69346e-05
4.35225e-05
3.34739e-05
2.56537e-05
1.95717e-05
1.50292e-05
1.18114e-05
9.59411e-06
8.00258e-06
6.66138e-06
5.40728e-06