/*--------------------------------*- C++ -*----------------------------------*\
  =========                 |
  \\      /  F ield         | OpenFOAM: The Open Source CFD Toolbox
   \\    /   O peration     | Website:  https://openfoam.org
    \\  /    A nd           | Version:  6
     \\/     M anipulation  |
\*---------------------------------------------------------------------------*/
FoamFile
{
    version     2.0;
    format      ascii;
    class       volScalarField;
    location    "0.1";
    object      CH2CO;
}
// * * * * * * * * * * * * * * * * * * * * * * * * * * * * * * * * * * * * * //

dimensions      [0 0 0 0 0 0 0];

internalField   nonuniform List<scalar> 
8000
(
3.0242e-06
1.79629e-05
6.29817e-05
0.000200562
0.000304373
0.000228254
0.000114753
5.17311e-05
2.38642e-05
1.1339e-05
5.69767e-06
4.67241e-06
7.55547e-06
2.08009e-05
2.04434e-05
2.13254e-05
2.82018e-05
0.000771297
4.88228e-05
3.6207e-05
3.49659e-05
3.53405e-05
5.57671e-05
0.000138745
0.000219508
0.000288904
0.000322252
0.000309628
0.000310059
0.00135902
0.000843831
0.000167715
0.000108876
7.04278e-05
5.1973e-05
4.3365e-05
4.05187e-05
4.39324e-05
6.27572e-05
8.77441e-05
6.36907e-05
5.00916e-05
5.08231e-05
6.38396e-05
8.81726e-05
0.000124444
0.000165072
0.000217373
0.00033673
0.00187557
0.00102725
0.000676321
0.000601044
0.000605917
0.000614809
0.000626197
0.000634559
0.000636234
0.000631807
0.000620582
0.000476276
0.000435963
0.000236971
0.000178124
0.000115853
5.3628e-05
0.000106495
7.98202e-05
8.17731e-05
8.22996e-05
8.22963e-05
8.22307e-05
8.24451e-05
0.000117891
0.000118257
8.21713e-05
8.2142e-05
8.23169e-05
8.2236e-05
8.23138e-05
8.30638e-05
8.32708e-05
8.30942e-05
0.000117011
0.000108371
9.59041e-05
8.18322e-05
7.23125e-05
8.69405e-05
5.07933e-05
4.03673e-05
3.23997e-05
2.70671e-05
2.32676e-05
1.62067e-05
1.28742e-05
1.09974e-05
9.68071e-06
9.1816e-06
6.39715e-06
2.95498e-06
1.87946e-05
6.61719e-05
0.000213645
0.000357667
0.000227887
0.000107952
4.90585e-05
2.251e-05
1.05257e-05
5.34516e-06
5.07793e-06
1.02942e-05
3.4307e-05
3.16997e-05
2.50673e-05
2.83258e-05
3.72493e-05
3.94013e-05
4.06282e-05
3.77517e-05
3.80965e-05
6.10998e-05
0.000146449
0.000225905
0.000307086
0.000325902
0.000310055
0.000291159
0.000336008
0.000196612
0.000148325
0.000103493
7.29805e-05
5.95386e-05
5.25426e-05
4.92553e-05
5.1931e-05
7.29314e-05
0.000387516
8.09278e-05
5.6882e-05
5.59544e-05
6.88996e-05
9.30796e-05
0.000129352
0.000168744
0.000218647
0.000330099
0.000409382
0.000563637
0.000588776
0.000603298
0.000608969
0.000616666
0.000626354
0.000633175
0.000633986
0.000628803
0.000617737
0.000473243
0.000430765
0.000230659
0.00019467
7.63452e-05
5.37428e-05
0.000106442
7.98261e-05
8.17403e-05
8.22882e-05
8.25941e-05
8.20723e-05
8.2373e-05
0.000117572
0.000117995
8.21249e-05
8.20876e-05
8.22757e-05
8.22375e-05
8.22555e-05
8.30264e-05
8.32331e-05
8.30136e-05
0.000116835
0.000108382
9.57375e-05
8.16697e-05
7.21923e-05
6.42423e-05
5.06709e-05
4.03098e-05
3.23445e-05
2.70264e-05
2.32591e-05
1.61764e-05
1.2855e-05
1.09836e-05
9.6684e-06
9.18917e-06
6.38785e-06
3.33596e-06
2.27253e-05
4.89579e-05
0.000179211
0.000237188
0.000156717
7.93527e-05
4.09313e-05
3.39795e-05
1.1029e-05
1.29122e-05
5.4493e-06
1.31862e-05
5.28863e-05
6.25291e-05
3.46214e-05
2.76187e-05
3.21743e-05
5.0652e-05
0.000257326
5.0888e-05
4.56929e-05
7.35334e-05
0.000162236
0.000237684
0.000355177
0.000349455
0.000311164
0.000272152
0.00022477
0.000176053
0.000136133
0.000101625
8.04819e-05
7.78484e-05
7.79007e-05
7.10155e-05
7.12665e-05
7.62328e-05
8.38868e-05
6.97574e-05
6.28765e-05
6.5373e-05
7.89888e-05
0.00010316
0.000139715
0.000177013
0.000232102
0.000326987
0.000399993
0.000435064
0.000598546
0.000614265
0.000615911
0.000619516
0.000625799
0.000630279
0.000629232
0.000622568
0.000551596
0.000466578
0.000418658
0.00021716
0.000160687
7.83506e-05
5.39785e-05
7.8653e-05
7.98506e-05
8.16489e-05
8.22341e-05
8.24716e-05
8.17632e-05
0.000152107
0.000116863
0.000117428
0.000118568
8.19672e-05
8.21834e-05
8.22223e-05
7.40139e-05
8.29441e-05
8.31504e-05
8.28321e-05
0.000116472
0.000138556
9.53659e-05
8.13283e-05
7.19359e-05
6.30309e-05
5.04341e-05
4.01849e-05
3.22237e-05
6.7574e-05
6.78672e-05
1.61091e-05
1.28131e-05
1.0953e-05
9.64129e-06
7.55619e-05
6.36731e-06
4.4416e-06
2.8565e-05
0.000132547
0.000185106
0.000150745
9.94343e-05
5.20545e-05
2.64181e-05
1.29359e-05
5.8703e-06
3.49984e-06
3.91568e-06
9.12629e-06
0.00011326
0.000806118
4.14471e-05
2.53261e-05
2.8264e-05
4.04766e-05
4.92097e-05
4.23259e-05
4.69081e-05
8.90601e-05
0.00017508
0.000249548
0.00101213
0.000386857
0.000311885
0.000258743
0.000209325
0.00016919
0.000133939
0.000106165
9.11961e-05
0.000101959
0.000366861
0.000106057
0.000227029
9.69209e-05
9.16332e-05
8.1526e-05
7.87233e-05
8.05791e-05
9.30994e-05
0.000118025
0.000153634
0.000196385
0.000250357
0.000331183
0.000370536
0.000438888
0.000611107
0.00107002
0.000621702
0.000620074
0.000623214
0.000625823
0.000622861
0.000613907
0.000475514
0.000456129
0.000290734
0.000197681
0.000124899
8.11229e-05
5.43901e-05
7.87103e-05
7.9924e-05
8.14826e-05
8.20208e-05
0.000111467
0.000117842
0.000117994
0.000115753
0.000116584
8.16978e-05
8.17791e-05
8.20424e-05
8.21841e-05
8.2383e-05
8.28168e-05
8.3025e-05
8.25423e-05
0.000115984
0.000106679
9.47822e-05
8.08169e-05
7.15567e-05
6.20779e-05
5.01012e-05
3.99972e-05
3.20429e-05
2.65552e-05
2.23978e-05
1.60035e-05
1.27502e-05
1.09071e-05
9.60005e-06
8.79649e-06
6.33478e-06
4.00097e-06
3.53287e-05
0.000946769
0.0002393
0.000114259
6.50801e-05
3.20573e-05
1.52504e-05
7.21705e-06
3.45995e-06
6.72262e-06
6.61839e-06
7.3824e-06
3.494e-05
4.86991e-05
2.95318e-05
2.15266e-05
2.57857e-05
3.45046e-05
3.79649e-05
3.7773e-05
5.38982e-05
0.000118167
0.000202514
0.000266799
0.000358323
0.000347258
0.000308755
0.000249025
0.000209605
0.000172274
0.000141106
0.000117161
0.000102401
0.000101187
0.000101453
9.6795e-05
0.000100315
0.000109636
0.000407732
0.000104825
0.000102849
0.000101214
0.000110405
0.000135639
0.00017149
0.000206972
0.000255432
0.000339193
0.000410761
0.000441175
0.000605061
0.000696897
0.000616387
0.000615863
0.000618246
0.000620788
0.00061548
0.000542887
0.000465371
0.00044036
0.000265351
0.000173549
8.46902e-05
6.77142e-05
0.000104549
7.88821e-05
8.00259e-05
7.33175e-05
8.17191e-05
8.18934e-05
0.000116173
0.000115553
0.000114334
0.000115494
8.11562e-05
8.15155e-05
8.18462e-05
8.20304e-05
8.2344e-05
8.26425e-05
0.000102305
8.21319e-05
0.00016148
0.000105265
9.40281e-05
8.01384e-05
7.10627e-05
6.107e-05
4.96801e-05
3.97491e-05
3.1806e-05
2.61898e-05
2.1729e-05
1.58693e-05
1.26675e-05
1.0846e-05
9.54549e-06
8.47779e-06
6.29461e-06
3.16521e-06
6.46414e-05
0.000304867
0.000134284
6.70093e-05
3.92761e-05
1.9004e-05
2.19258e-05
4.43514e-06
2.67682e-06
2.39655e-06
3.02006e-06
4.62178e-06
2.40485e-05
2.81262e-05
2.67621e-05
3.71811e-05
3.40926e-05
5.86396e-05
3.51076e-05
3.99138e-05
7.24311e-05
0.000444482
0.00052373
0.000273702
0.000333799
0.000325206
0.000307785
0.000262932
0.000216689
0.000183385
0.000156299
0.000131822
0.000119375
0.000111768
0.000106384
0.000104098
0.000108696
0.000118805
0.000124538
0.000119723
0.000131486
0.00032225
0.000129925
0.00015247
0.000197062
0.000250568
0.000277506
0.000343854
0.00106936
0.000439558
0.000596758
0.00108467
0.000611206
0.000609385
0.000611472
0.000614565
0.000604722
0.000465886
0.000449903
0.000416132
0.000234217
0.000146854
8.45665e-05
6.94264e-05
0.000104283
7.91136e-05
7.999e-05
8.11469e-05
8.13167e-05
8.13728e-05
0.000114158
0.00011316
0.000112596
0.000114182
8.05212e-05
8.10713e-05
8.15896e-05
8.18276e-05
8.21479e-05
8.24199e-05
0.000108333
0.000118533
0.000113088
0.000104021
9.31171e-05
7.92971e-05
7.04527e-05
6.00808e-05
4.91787e-05
3.94424e-05
3.15171e-05
2.58216e-05
6.91586e-05
1.57106e-05
1.25781e-05
1.07694e-05
9.47889e-06
8.2231e-06
6.24812e-06
2.32602e-06
2.58479e-05
9.32071e-05
5.03256e-05
3.54721e-05
2.29276e-05
2.87411e-05
2.3993e-05
9.61671e-06
2.84399e-06
2.85414e-06
4.01963e-06
9.59953e-06
1.68139e-05
1.95028e-05
1.93307e-05
2.45954e-05
2.93782e-05
3.27397e-05
3.56115e-05
9.56869e-05
0.000101605
0.000174987
0.000231135
0.000276387
0.000970399
0.000960439
0.000309498
0.000891157
0.000234403
0.000201607
0.00017414
0.000157145
0.000141155
0.000131578
0.000124223
0.000123309
0.000123061
0.000131393
0.000147697
0.00035669
0.000135683
0.000132247
0.000141643
0.000166164
0.000205785
0.000992503
0.000301912
0.000340651
0.00036825
0.000427947
0.000486695
0.00108343
0.000602894
0.000600503
0.000601041
0.000603689
0.00107019
0.000451555
0.000428031
0.000378482
0.000199098
0.000172189
0.000113889
2.84784e-05
7.71468e-05
7.91403e-05
7.98967e-05
8.07053e-05
8.07977e-05
8.0593e-05
0.000111781
0.000110596
0.000110557
0.000112678
0.000114616
8.05026e-05
8.1276e-05
8.15791e-05
0.000101787
8.21372e-05
8.22605e-05
0.000116731
0.00011087
0.000102862
9.20579e-05
7.83013e-05
8.44023e-05
5.90363e-05
4.8576e-05
3.90795e-05
3.1181e-05
2.5438e-05
2.05609e-05
1.55269e-05
1.24716e-05
1.06783e-05
9.40138e-06
8.01184e-06
6.19588e-06
3.1144e-06
2.58278e-05
4.90513e-05
3.02117e-05
1.89834e-05
1.23548e-05
2.3266e-05
6.08413e-06
3.35551e-06
3.18558e-06
6.4565e-06
1.04495e-05
1.34705e-05
1.97431e-05
1.77522e-05
2.07564e-05
2.71034e-05
3.15312e-05
3.34754e-05
3.69351e-05
5.386e-05
0.000359262
0.000204124
0.000602244
0.000306292
0.000335787
0.000322613
0.000311406
0.000284317
0.000243392
0.000761156
0.000201114
0.000185468
0.000170848
0.000161097
0.000381108
0.000148827
0.000148125
0.000152134
0.000154816
0.000146085
0.000139257
0.000141533
0.000154365
0.000176436
0.000205445
0.000248281
0.000274538
0.000332875
0.000355229
0.000416164
0.000439462
0.00107809
0.000533017
0.000531815
0.000532592
0.000533776
0.000457556
0.000431299
0.000293335
0.000236973
0.000269218
6.93666e-05
8.1836e-05
5.44441e-05
7.722e-05
7.89499e-05
7.95675e-05
8.0068e-05
0.000137731
0.000159257
0.000109023
0.000107883
0.000108231
0.000156073
0.000112541
0.000115083
8.08875e-05
8.12744e-05
0.000108512
8.18013e-05
8.18603e-05
0.000114726
0.000108742
0.000123815
9.0863e-05
7.71585e-05
6.83385e-05
5.79359e-05
4.79045e-05
3.86557e-05
3.08011e-05
2.50373e-05
2.00117e-05
1.53234e-05
1.2349e-05
1.05728e-05
9.31182e-06
7.83025e-06
6.13836e-06
1.28956e-06
1.25833e-05
3.0587e-05
2.54997e-05
1.0056e-05
5.89134e-06
4.92793e-06
3.49477e-06
3.36088e-06
4.43991e-06
9.29516e-06
1.76856e-05
3.86747e-05
2.58085e-05
3.3747e-05
3.47323e-05
6.21515e-05
3.65465e-05
8.86053e-05
4.33315e-05
6.40636e-05
0.000122651
0.000186739
0.000236682
0.000950669
0.00100418
0.000323758
0.000312292
0.000948659
0.000261046
0.000239259
0.000229369
0.000228854
0.000217951
0.0002033
0.000187911
0.000551407
0.000175542
0.00018111
0.000545274
0.000158702
0.000151017
0.000155242
0.000168396
0.000185984
0.000205257
0.000248747
0.0002697
0.000326379
0.000344913
0.0003617
0.000425921
0.000443779
0.000455423
0.00106666
0.000457071
0.000458917
0.000438437
0.000402852
0.000255273
0.000350219
0.000190305
8.70805e-05
2.80537e-05
0.000101213
7.73135e-05
7.85728e-05
7.87248e-05
0.000113569
7.88421e-05
0.000110471
0.000105941
0.000105018
0.000105679
0.000108169
0.000110273
0.000113105
8.03039e-05
0.000119038
8.11455e-05
0.000134281
0.000149162
0.000112516
0.000106598
0.000121603
8.94474e-05
7.58787e-05
6.6905e-05
5.67981e-05
4.71782e-05
3.81772e-05
3.03822e-05
2.45161e-05
1.95112e-05
1.51014e-05
1.22102e-05
1.04553e-05
9.21142e-06
7.6692e-06
6.07537e-06
5.39544e-07
5.92616e-06
1.1101e-05
1.5519e-05
4.66484e-06
3.19475e-06
5.66351e-06
3.2782e-06
6.07482e-06
1.20323e-05
1.22821e-05
2.86022e-05
4.13929e-05
9.12628e-05
3.53561e-05
3.36122e-05
3.72859e-05
4.3145e-05
0.000104975
9.65454e-05
0.000173673
0.000136007
0.000186259
0.000231348
0.0002871
0.000982148
0.000319844
0.000310229
0.000302953
0.000277989
0.000270486
0.000269096
0.000313002
0.000937879
0.000849485
0.000246572
0.000227275
0.000213544
0.000206712
0.000198749
0.000176758
0.000168979
0.000172717
0.000183947
0.000196794
0.000215581
0.000247379
0.000266741
0.000322621
0.000336377
0.000348394
0.000358086
0.000427407
0.000441577
0.000442477
0.000442357
0.00104905
0.00094689
0.000264664
0.000212674
0.000157855
0.000117928
7.89238e-05
5.45156e-05
4.39229e-05
6.58418e-05
7.77089e-05
7.7695e-05
0.000141401
0.000109322
0.000106005
0.000102642
0.000101909
0.00010293
0.000105254
0.000107793
0.000160845
0.000153589
8.04172e-05
8.06062e-05
8.06882e-05
0.000116062
0.000110067
0.000104366
9.72511e-05
8.39844e-05
7.4475e-05
6.54365e-05
5.56258e-05
4.63925e-05
3.76499e-05
2.99368e-05
2.39853e-05
1.90296e-05
1.48458e-05
1.20562e-05
1.03281e-05
9.09905e-06
7.52432e-06
6.00615e-06
8.39168e-08
3.91163e-06
9.55335e-06
9.61597e-06
3.03095e-06
2.87407e-06
3.41282e-06
5.90277e-06
8.66722e-06
1.38932e-05
2.58654e-05
5.74283e-05
0.000102518
9.10019e-05
4.52357e-05
3.96926e-05
9.83214e-05
4.44585e-05
5.55299e-05
7.67106e-05
0.000108143
0.000151927
0.000197741
0.000230119
0.000265511
0.000319266
0.000318631
0.000309558
0.000304277
0.000301016
0.00029587
0.000295477
0.000317871
0.000311932
0.000300795
0.000943322
0.000291453
0.000917143
0.000258556
0.000834413
0.000203702
0.00019653
0.000198392
0.000201931
0.00021423
0.000228647
0.000247079
0.000262885
0.00102763
0.000328028
0.000333411
0.000338623
0.000341449
0.000426001
0.00104161
0.000420394
0.000918098
0.000270268
0.000221022
0.000170169
0.000172641
4.64653e-05
6.93508e-05
9.87132e-05
7.51178e-05
7.63357e-05
7.65866e-05
7.61326e-05
0.000107684
0.000151596
0.00010174
9.90679e-05
9.86708e-05
9.99654e-05
0.000102326
0.000105116
0.000108417
0.000112214
7.96708e-05
0.000152927
0.000115024
0.00011319
0.000107518
0.000101977
9.46098e-05
8.23168e-05
7.2968e-05
6.39147e-05
5.44454e-05
7.05064e-05
3.7078e-05
2.94719e-05
2.34459e-05
1.85612e-05
1.45714e-05
1.18887e-05
1.01858e-05
8.97727e-06
7.34647e-06
5.93183e-06
4.11751e-07
3.26951e-06
5.51076e-06
6.28977e-06
4.20374e-06
7.16031e-06
6.97948e-06
1.17455e-05
1.6407e-05
2.07148e-05
3.28376e-05
3.68973e-05
5.80655e-05
0.000311739
5.48163e-05
4.3978e-05
4.2294e-05
4.38317e-05
7.07391e-05
0.000250121
0.00012802
0.000169143
0.000493092
0.000233941
0.000259721
0.000971921
0.00100054
0.000310009
0.000328176
0.000987701
0.000323243
0.000321015
0.000321828
0.000317078
0.000310763
0.000332716
0.000317895
0.000326165
0.000929795
0.000262001
0.000239534
0.000220243
0.00021858
0.000232185
0.000244999
0.000243091
0.000236495
0.000254419
0.000276387
0.000315676
0.00101641
0.00101591
0.00101617
0.000314813
0.000302359
0.000286951
0.000262017
0.000223654
0.000176723
0.000188185
8.75066e-05
2.47803e-05
5.39602e-05
7.32023e-05
7.47131e-05
7.49873e-05
0.000140871
0.00015296
0.00010223
0.000100264
9.7462e-05
9.54176e-05
9.5331e-05
9.68834e-05
9.92927e-05
0.000102335
0.000105604
0.000109342
0.000113241
0.000112754
0.0001123
0.000110424
0.000104916
9.95141e-05
9.19715e-05
8.05366e-05
7.13716e-05
6.23459e-05
5.32633e-05
4.43124e-05
3.6481e-05
6.85836e-05
2.28992e-05
1.81038e-05
1.42849e-05
1.17064e-05
1.00306e-05
8.84502e-06
7.20003e-06
5.85136e-06
4.4097e-07
1.71579e-06
2.87083e-06
5.49827e-06
1.06398e-05
1.23772e-05
1.64264e-05
2.26792e-05
2.48256e-05
3.01471e-05
3.69908e-05
4.9444e-05
6.42455e-05
0.000119295
5.90076e-05
4.74131e-05
4.49298e-05
4.53654e-05
6.53049e-05
0.000104951
0.000145128
0.000192432
0.000654987
0.000237247
0.000255446
0.000924675
0.000305333
0.000301576
0.00101879
0.000347124
0.0010123
0.000352386
0.000370203
0.000366338
0.000340704
0.000336982
0.000352306
0.000349487
0.000312972
0.00028931
0.000958475
0.000929032
0.000251298
0.000248252
0.000985664
0.000244873
0.000232499
0.000971548
0.000239991
0.000292786
0.000958456
0.000280593
0.000275646
0.000273744
0.000796887
0.000605236
0.000214705
0.000284323
0.000212725
0.000109472
7.73807e-05
2.83439e-05
4.24524e-05
7.30971e-05
8.83405e-05
7.32517e-05
0.000148949
9.77976e-05
9.69763e-05
9.53393e-05
9.32183e-05
9.17211e-05
9.19176e-05
9.36964e-05
9.62377e-05
9.93995e-05
0.000102676
0.000106304
0.000158807
0.00010983
0.000109514
0.000150148
0.000102231
9.69716e-05
8.9351e-05
7.86517e-05
6.97121e-05
6.07632e-05
5.20758e-05
4.30816e-05
6.86426e-05
2.82888e-05
2.2337e-05
1.76564e-05
1.3983e-05
1.15105e-05
9.86412e-06
8.65352e-06
7.05631e-06
5.76765e-06
5.39482e-06
2.77645e-06
6.52952e-06
1.71345e-05
5.03077e-05
2.90489e-05
2.96733e-05
6.28693e-05
8.21475e-05
0.000117226
5.73662e-05
0.000123077
7.43255e-05
8.70896e-05
0.000112817
5.31578e-05
5.07711e-05
9.89538e-05
0.000110396
0.00030488
0.000159402
0.00046829
0.00024841
0.000242806
0.000246603
0.000265208
0.000282411
0.000293425
0.000299247
0.00031648
0.000323952
0.000346981
0.000370693
0.00101959
0.000363785
0.000360104
0.000359971
0.000358777
0.00100228
0.000292328
0.000281963
0.000258535
0.000253165
0.000267559
0.000997356
0.000240621
0.000232194
0.000228312
0.000208522
0.000218576
0.000209961
0.000209324
0.000194244
0.000576166
0.000554095
0.000193368
0.000169769
0.00022225
0.000114646
8.08689e-05
5.24508e-05
5.28853e-05
4.73856e-05
7.25314e-05
7.23605e-05
9.70788e-05
9.51172e-05
9.22668e-05
9.19115e-05
9.06363e-05
8.90606e-05
8.79814e-05
8.84281e-05
9.04078e-05
9.3147e-05
9.63862e-05
9.96816e-05
0.000103114
0.000107477
0.000106813
0.000106578
0.000104684
9.94404e-05
0.00011881
8.2996e-05
9.0998e-05
8.33525e-05
5.91317e-05
5.08746e-05
4.18373e-05
3.47639e-05
2.75606e-05
2.17592e-05
1.72262e-05
1.36702e-05
1.13012e-05
9.68531e-06
8.45934e-06
6.91329e-06
5.6851e-06
9.96554e-06
3.26448e-05
2.39939e-05
7.09205e-05
0.000173146
4.47897e-05
9.72892e-05
5.24065e-05
0.000103884
7.39801e-05
0.00010388
0.000109035
7.7309e-05
7.40158e-05
9.18429e-05
5.95012e-05
5.86595e-05
8.61588e-05
8.43998e-05
0.000373281
0.000176264
0.000202308
0.000625032
0.000222354
0.000237533
0.000246446
0.000933605
0.000268807
0.000271679
0.000285665
0.000309378
0.000310978
0.00100312
0.000338555
0.00101424
0.000363863
0.000365347
0.00103368
0.00101547
0.000291633
0.00028242
0.000276928
0.00027152
0.000268524
0.000239082
0.000220589
0.000210816
0.000208341
0.000221036
0.00056036
0.00027542
0.000201009
0.000209231
0.000219851
0.000223869
0.000254434
0.000185063
0.000144799
8.39151e-05
2.76404e-05
9.32669e-05
6.97015e-05
7.07451e-05
7.1291e-05
9.61952e-05
9.15076e-05
8.90711e-05
8.70211e-05
0.00011741
8.61611e-05
8.10906e-05
8.04621e-05
8.12191e-05
8.7063e-05
9.00182e-05
9.32934e-05
9.66062e-05
9.98577e-05
0.00014825
0.000103678
0.000103568
0.000101644
9.66175e-05
9.14841e-05
8.03652e-05
7.43802e-05
6.59036e-05
5.7373e-05
4.96622e-05
4.06008e-05
6.93492e-05
2.68524e-05
2.11789e-05
1.67935e-05
1.33833e-05
1.10817e-05
9.49561e-06
8.25889e-06
6.77074e-06
5.59556e-06
9.11587e-06
8.55572e-05
5.56411e-05
0.000145587
0.000105493
0.000112633
5.12405e-05
8.89183e-05
8.80136e-05
7.03419e-05
7.37304e-05
8.40036e-05
8.45589e-05
9.17741e-05
7.74474e-05
0.00010393
6.2546e-05
6.59816e-05
8.65781e-05
0.000131541
0.00032594
0.000390808
0.000197269
0.000619533
0.000768272
0.000897157
0.000889455
0.000231217
0.000232505
0.000260385
0.000967247
0.000979563
0.000275535
0.00027464
0.000295732
0.0010232
0.0010251
0.000348729
0.000317139
0.00100225
0.000282752
0.000280838
0.00101117
0.000244078
0.000936515
0.000200111
0.000713581
0.000196643
0.000230939
0.000347394
0.000262705
0.000231326
0.000201622
0.000195105
0.000172693
0.000151454
0.000104778
4.06432e-05
2.82055e-05
9.28053e-05
5.06566e-05
6.64216e-05
6.93153e-05
9.48659e-05
8.95369e-05
8.48955e-05
8.22634e-05
8.09738e-05
7.7637e-05
7.718e-05
7.64704e-05
7.61836e-05
7.71242e-05
7.94358e-05
9.9945e-05
8.95382e-05
9.29681e-05
0.000123496
9.9619e-05
0.00013454
9.98709e-05
9.79684e-05
9.321e-05
8.78897e-05
7.7197e-05
8.72142e-05
6.34164e-05
5.52246e-05
4.8118e-05
7.01017e-05
3.22468e-05
2.60083e-05
2.05148e-05
1.62696e-05
1.30321e-05
1.07963e-05
9.25168e-06
8.01382e-06
6.59736e-06
5.48408e-06
5.95653e-06
1.49874e-05
6.07696e-05
7.93155e-05
7.35318e-05
5.26972e-05
5.39888e-05
8.38137e-05
7.38755e-05
7.39147e-05
0.000104543
9.65889e-05
9.45805e-05
9.55241e-05
8.17749e-05
7.15762e-05
6.99683e-05
0.000117254
0.000246066
0.000137322
0.000158392
0.000172731
0.000178287
0.000195443
0.000750473
0.000774378
0.000769274
0.000218995
0.000761893
0.000214307
0.000219332
0.000228068
0.000229375
0.000242021
0.000258326
0.000260616
0.000261919
0.000263928
0.000999967
0.00028136
0.0010069
0.00102629
0.00100766
0.000239835
0.000200395
0.000183844
0.000242829
0.000242845
0.000209546
0.000162384
8.38561e-05
4.8023e-05
4.57873e-05
4.5129e-05
6.94822e-05
6.52098e-05
3.02552e-05
4.26178e-05
6.94242e-05
6.10831e-05
7.84508e-05
0.000117254
8.96621e-05
8.70742e-05
8.23145e-05
7.75382e-05
7.19567e-05
7.1113e-05
7.14039e-05
7.18659e-05
7.15233e-05
7.1469e-05
7.25614e-05
7.49252e-05
7.80326e-05
8.51176e-05
8.84765e-05
9.10932e-05
9.43473e-05
9.50434e-05
9.54512e-05
9.37459e-05
8.92642e-05
8.01012e-05
7.35887e-05
6.79975e-05
6.05707e-05
5.2763e-05
4.59301e-05
3.73447e-05
3.05972e-05
2.4818e-05
1.97259e-05
1.56479e-05
1.26173e-05
1.04517e-05
8.94954e-06
7.76199e-06
6.39042e-06
5.34228e-06
1.66376e-05
4.41765e-06
3.56929e-05
6.26152e-05
5.31789e-05
3.14553e-05
3.38149e-05
5.14701e-05
5.76517e-05
7.61294e-05
0.000286881
0.000114444
0.00010795
0.00010007
9.01182e-05
0.000105607
8.94935e-05
0.000105095
0.000410713
0.000158395
0.000396904
0.000163233
0.000172165
0.000182328
0.000626366
0.000191662
0.000187415
0.000186799
0.00061388
0.000190081
0.000735907
0.000775962
0.000197589
0.000215992
0.000873695
0.00020841
0.000220016
0.000235398
0.000255759
0.000986309
0.000245083
0.000240053
0.00023842
0.00089776
0.000185975
0.000238956
0.000222874
0.000135984
9.204e-05
7.79023e-05
7.6392e-05
4.37925e-05
7.37756e-05
4.32576e-05
7.18364e-05
4.40601e-05
4.47236e-05
5.84255e-05
6.87129e-05
6.73289e-05
6.55731e-05
8.48236e-05
8.13068e-05
7.93484e-05
9.69754e-05
6.77643e-05
6.55341e-05
6.51688e-05
8.59845e-05
8.63032e-05
6.67534e-05
6.68642e-05
6.80857e-05
7.05272e-05
7.35284e-05
7.71581e-05
8.38407e-05
8.63251e-05
8.92025e-05
9.02551e-05
9.07355e-05
8.94648e-05
0.000100393
7.60155e-05
6.99952e-05
6.43745e-05
5.77498e-05
5.03558e-05
4.3686e-05
7.10625e-05
2.90377e-05
2.36679e-05
1.89289e-05
1.50199e-05
1.21898e-05
1.00916e-05
8.62117e-06
7.51114e-06
6.18628e-06
5.18824e-06
1.86223e-05
8.98211e-06
2.01769e-05
3.03003e-05
2.27825e-05
1.3325e-05
1.76043e-05
2.32228e-05
3.35656e-05
6.23632e-05
0.000114743
0.000137064
0.000127253
0.000127667
0.000147172
0.00011293
0.00012002
0.000372209
0.000141194
0.000145706
0.000152718
0.000446078
0.000481382
0.000483541
0.000527395
0.000171695
0.000167567
0.000163419
0.000156692
0.000161091
0.000523
0.000161934
0.000169154
0.000681719
0.000178657
0.000184075
0.000765114
0.00019699
0.000203684
0.000215179
0.000222151
0.000912601
0.0001978
0.000182314
0.000419678
0.000162144
0.00010505
7.90261e-05
7.7434e-05
7.64551e-05
7.57485e-05
6.90356e-05
6.59132e-05
7.24835e-05
7.14593e-05
7.01807e-05
6.90699e-05
6.77739e-05
6.60155e-05
8.5113e-05
8.04073e-05
0.000106431
7.33395e-05
9.22791e-05
6.52032e-05
6.12562e-05
5.9359e-05
5.93525e-05
6.02472e-05
6.14286e-05
8.04971e-05
6.23249e-05
6.35576e-05
6.61386e-05
6.91947e-05
7.29499e-05
7.58023e-05
7.80724e-05
8.41774e-05
0.000109183
8.60459e-05
8.51027e-05
7.72937e-05
7.21561e-05
6.63984e-05
6.08865e-05
5.48202e-05
4.79492e-05
4.14152e-05
3.37265e-05
2.75429e-05
2.25405e-05
1.80643e-05
1.44002e-05
1.17545e-05
9.71358e-06
8.30739e-06
7.25141e-06
5.98013e-06
5.0252e-06
1.82498e-05
1.56346e-05
2.26353e-05
2.74168e-05
2.84832e-05
3.52183e-05
3.66313e-05
2.93638e-05
2.93356e-05
4.8557e-05
9.2326e-05
0.00031762
0.000145257
0.000353406
0.000144262
0.000145629
0.000150408
0.000144881
0.000142599
0.000138722
0.000139447
0.000524561
0.000140833
0.000150241
0.000152053
0.000153998
0.000155961
0.000432596
0.000139116
0.000376269
0.000138402
0.000139591
0.000362055
0.000149016
0.000468731
0.000165533
0.000177398
0.000184222
0.000197511
0.000188539
0.000187618
0.000181653
0.000205966
0.000402038
0.000203258
9.49608e-05
0.000107861
0.000101689
9.98011e-05
9.95984e-05
0.000137524
0.000131103
0.000124156
7.03827e-05
0.000124604
6.75612e-05
8.97971e-05
0.00012493
8.10907e-05
7.66844e-05
7.219e-05
6.65498e-05
6.35347e-05
6.17879e-05
5.82729e-05
5.50705e-05
5.34985e-05
5.38015e-05
5.48538e-05
5.61983e-05
5.72508e-05
5.80589e-05
5.92145e-05
6.17792e-05
6.48751e-05
6.88267e-05
8.89049e-05
7.35253e-05
7.57354e-05
7.71161e-05
7.76615e-05
7.69233e-05
9.10744e-05
6.81324e-05
6.27904e-05
5.75859e-05
5.20088e-05
4.54769e-05
3.91891e-05
3.18476e-05
2.60837e-05
2.14988e-05
1.71989e-05
1.37589e-05
1.13056e-05
9.31915e-06
8.01099e-06
6.98804e-06
5.76272e-06
4.85408e-06
1.81971e-05
1.83263e-05
2.13488e-05
2.98259e-05
3.78027e-05
4.30328e-05
4.89402e-05
5.00483e-05
3.9002e-05
4.4849e-05
8.40411e-05
0.000115928
0.000152496
0.000169917
0.000167464
0.000183764
0.00018071
0.000426243
0.000151093
0.00013574
0.000126627
0.000118593
0.00012057
0.000129969
0.000138597
0.000463045
0.000140407
0.000129905
0.000120106
0.000118601
0.000119281
0.000126222
0.000132361
0.000139233
0.000150371
0.000155694
0.000166191
0.000576274
0.00017774
0.00018307
0.00019817
0.000196826
0.000373537
0.000198422
9.74386e-05
0.000100717
0.000117984
8.82648e-05
8.72879e-05
8.81522e-05
8.98899e-05
8.92376e-05
8.86409e-05
8.83936e-05
8.5876e-05
8.26674e-05
7.96125e-05
7.62943e-05
7.27637e-05
6.64995e-05
6.23817e-05
5.91207e-05
5.64975e-05
5.46854e-05
7.79208e-05
4.9086e-05
4.80273e-05
4.86034e-05
4.97673e-05
5.12342e-05
5.24685e-05
5.34061e-05
5.48458e-05
5.76038e-05
6.0652e-05
6.45499e-05
6.7221e-05
6.92002e-05
7.1207e-05
7.23292e-05
7.3164e-05
7.26807e-05
6.88708e-05
6.41456e-05
5.93154e-05
5.4202e-05
4.91067e-05
7.39611e-05
3.70391e-05
3.00949e-05
2.46609e-05
2.0315e-05
1.62868e-05
1.31205e-05
1.07653e-05
8.92125e-06
7.70793e-06
6.72679e-06
5.54044e-06
4.66667e-06
1.86371e-05
1.98411e-05
1.93596e-05
2.3809e-05
2.77219e-05
2.67961e-05
3.19503e-05
4.69326e-05
5.07129e-05
4.24754e-05
6.24624e-05
0.000106965
0.000136389
0.000618705
0.0001723
0.000449514
0.000429477
0.000155476
0.000451554
0.000124953
0.000482836
0.000102415
0.000103083
0.00011378
0.000533045
0.000533653
0.000128663
0.000273539
0.000107949
0.000103444
0.000107757
0.000122528
0.000190303
0.000134966
0.000148042
0.000167434
0.000410769
0.000168871
0.000172792
0.000485016
0.000199386
0.000327507
0.000185972
0.000109085
9.26417e-05
8.52105e-05
7.63563e-05
7.30126e-05
7.27504e-05
7.41207e-05
0.000104728
7.73449e-05
7.71237e-05
0.00010879
0.000106847
7.28303e-05
6.805e-05
6.51482e-05
8.33939e-05
5.89565e-05
5.50882e-05
5.2077e-05
4.96941e-05
4.79913e-05
4.58518e-05
4.35957e-05
4.28925e-05
4.3673e-05
4.50093e-05
4.6775e-05
7.38735e-05
4.91803e-05
5.07027e-05
5.33746e-05
5.65764e-05
6.02715e-05
6.27905e-05
6.49994e-05
6.69541e-05
6.79669e-05
8.94431e-05
8.95356e-05
6.46361e-05
6.02845e-05
5.59175e-05
5.09885e-05
4.62157e-05
4.07026e-05
3.47926e-05
2.84173e-05
2.32742e-05
1.91888e-05
1.54023e-05
1.24916e-05
1.02371e-05
8.56438e-06
7.39359e-06
6.44043e-06
5.33282e-06
4.50048e-06
1.93307e-05
2.0784e-05
1.92491e-05
1.87258e-05
1.7481e-05
1.42644e-05
1.64313e-05
2.87595e-05
4.48653e-05
4.30936e-05
4.29344e-05
1.95624e-05
0.000106637
0.000131635
0.000146811
0.000158121
0.000148405
0.000128844
0.000117562
0.000102165
8.9176e-05
8.11449e-05
0.000237878
9.50883e-05
0.000107508
0.000222178
0.000130459
0.000116579
0.000104075
9.00211e-05
8.29756e-05
9.04109e-05
9.96877e-05
0.000115015
0.00014168
0.000166973
0.000180674
0.00018386
0.000189152
0.000193448
0.000198098
0.000120561
0.000104116
8.80927e-05
7.49245e-05
8.15905e-05
6.40494e-05
6.17428e-05
6.21608e-05
6.3953e-05
8.65452e-05
6.41502e-05
6.43172e-05
6.48525e-05
6.3619e-05
6.16021e-05
5.94006e-05
5.68603e-05
5.46499e-05
7.69341e-05
4.8032e-05
4.54205e-05
4.34339e-05
4.20017e-05
4.01432e-05
3.87052e-05
3.83148e-05
3.92526e-05
4.06911e-05
4.23508e-05
4.39063e-05
4.50689e-05
4.68025e-05
4.94828e-05
5.24991e-05
5.61353e-05
5.8618e-05
6.08069e-05
6.26951e-05
6.36925e-05
6.47064e-05
8.62007e-05
6.06105e-05
5.66041e-05
5.25022e-05
4.793e-05
4.33812e-05
3.82398e-05
3.26897e-05
2.67721e-05
2.19783e-05
1.80899e-05
1.45804e-05
1.18673e-05
9.71167e-06
8.20285e-06
7.08663e-06
6.15505e-06
5.11841e-06
4.36047e-06
2.01486e-05
2.06868e-05
1.83658e-05
1.51486e-05
1.1287e-05
7.15053e-06
7.51904e-06
1.53361e-05
3.06086e-05
3.92373e-05
3.33558e-05
4.29983e-05
7.05656e-05
9.36572e-05
0.00011067
0.000117614
0.000464035
0.000332005
9.01647e-05
0.000202657
6.3845e-05
6.04337e-05
6.64888e-05
7.63087e-05
8.66573e-05
0.000106787
5.78999e-05
8.64638e-05
5.31861e-05
6.17665e-05
5.62541e-05
6.68723e-05
5.40729e-05
8.59279e-05
0.000112486
0.000144959
0.000164719
0.000244471
0.000151723
0.000210134
0.000111987
9.57391e-05
8.21782e-05
8.00486e-05
6.13976e-05
5.58316e-05
7.20825e-05
5.10352e-05
7.38522e-05
5.4347e-05
7.72968e-05
5.43753e-05
5.48322e-05
5.54804e-05
7.81407e-05
5.3084e-05
5.10605e-05
4.87972e-05
4.6617e-05
4.43414e-05
4.15915e-05
3.94343e-05
3.78832e-05
7.50491e-05
3.51539e-05
3.42133e-05
3.40656e-05
3.51195e-05
3.66882e-05
3.83906e-05
3.99595e-05
4.13169e-05
4.30401e-05
4.57028e-05
4.87563e-05
5.19992e-05
5.44963e-05
5.6795e-05
5.85608e-05
5.94853e-05
6.03409e-05
6.02059e-05
7.96293e-05
5.28392e-05
4.92694e-05
4.48288e-05
4.06489e-05
3.57911e-05
3.07321e-05
2.51819e-05
2.07018e-05
1.70068e-05
1.3778e-05
1.12426e-05
9.24835e-06
7.83179e-06
6.78202e-06
5.87308e-06
4.9298e-06
4.21177e-06
2.09327e-05
1.91447e-05
1.42782e-05
1.02911e-05
6.88205e-06
3.91014e-06
3.99326e-06
8.81729e-06
2.03484e-05
3.13214e-05
2.99621e-05
2.67667e-05
4.04737e-05
6.09631e-05
7.62564e-05
0.000178134
7.50572e-05
6.48698e-05
0.000146845
5.17511e-05
4.33848e-05
4.25291e-05
4.61241e-05
3.09013e-05
5.69784e-05
5.39664e-05
5.17524e-05
6.45746e-05
4.47509e-05
4.94079e-05
4.20633e-05
4.5237e-05
5.35844e-05
6.78504e-05
9.45347e-05
9.4249e-05
0.000129459
0.000130681
0.000118865
0.000118116
8.85196e-05
7.60733e-05
6.34687e-05
7.03917e-05
6.98629e-05
4.34931e-05
4.16423e-05
4.13817e-05
4.27222e-05
7.32931e-05
4.50063e-05
4.50201e-05
4.5773e-05
4.65646e-05
4.6166e-05
4.48896e-05
4.32387e-05
4.14544e-05
3.96199e-05
3.78515e-05
3.59946e-05
3.42301e-05
3.28197e-05
3.20664e-05
3.07228e-05
3.00914e-05
3.02292e-05