/*--------------------------------*- C++ -*----------------------------------*\
  =========                 |
  \\      /  F ield         | OpenFOAM: The Open Source CFD Toolbox
   \\    /   O peration     | Website:  https://openfoam.org
    \\  /    A nd           | Version:  6
     \\/     M anipulation  |
\*---------------------------------------------------------------------------*/
FoamFile
{
    version     2.0;
    format      ascii;
    class       volScalarField;
    location    "0.1";
    object      CH2CHO;
}
// * * * * * * * * * * * * * * * * * * * * * * * * * * * * * * * * * * * * * //

dimensions      [0 0 0 0 0 0 0];

internalField   nonuniform List<scalar> 
8000
(
1.74884e-09
1.29116e-07
4.21762e-07
5.79663e-07
5.15453e-07
5.82923e-07
5.40163e-07
3.59761e-07
1.67437e-07
4.47e-08
8.92926e-09
5.41366e-09
1.91937e-08
2.22802e-07
2.12949e-07
2.38104e-07
5.64478e-07
4.17223e-07
4.86779e-07
6.50004e-07
6.78236e-07
5.04792e-07
3.56659e-07
3.59081e-07
2.55806e-07
2.41211e-07
2.45789e-07
2.23921e-07
2.15281e-07
1.55541e-06
4.07196e-07
1.98421e-07
2.27164e-07
2.18527e-07
2.23112e-07
2.35763e-07
2.44099e-07
2.42912e-07
2.49401e-07
2.48892e-07
1.97871e-07
1.43673e-07
1.09189e-07
9.32006e-08
8.65377e-08
7.41092e-08
6.60901e-08
6.93189e-08
9.8524e-08
2.1522e-06
2.98121e-08
8.18172e-08
7.83988e-08
7.43307e-08
6.64478e-08
5.64229e-08
4.60667e-08
3.58948e-08
2.54584e-08
1.55171e-08
7.85703e-09
3.43918e-09
3.08908e-09
2.70916e-13
2.57181e-10
4.3517e-11
8.50856e-10
5.46129e-10
5.29282e-10
5.19764e-10
4.61985e-08
4.95194e-10
4.96835e-10
3.3488e-09
3.44561e-09
5.04267e-10
5.0391e-10
5.0971e-10
5.20499e-10
5.24847e-10
5.13868e-10
5.11825e-10
4.99265e-10
3.1275e-09
2.59165e-09
2.13948e-09
1.97692e-09
1.86824e-09
3.40961e-07
2.03571e-09
2.10453e-09
2.06165e-09
1.97312e-09
1.89929e-09
1.67116e-09
1.53831e-09
1.48461e-09
1.43836e-09
1.4074e-09
1.28135e-09
1.61768e-09
1.49585e-07
4.45642e-07
5.69045e-07
5.25491e-07
5.79059e-07
5.26181e-07
3.49885e-07
1.55539e-07
3.71047e-08
7.36795e-09
6.69662e-09
4.09381e-08
4.53899e-07
4.52796e-07
3.24601e-07
5.45522e-07
5.6525e-07
5.78837e-07
5.89493e-07
6.22267e-07
4.81995e-07
3.55423e-07
3.59282e-07
2.5436e-07
2.48392e-07
2.43474e-07
2.23902e-07
2.06106e-07
2.55263e-07
1.55114e-07
1.87571e-07
2.14168e-07
2.11109e-07
2.2018e-07
2.34043e-07
2.42604e-07
2.42076e-07
2.54196e-07
1.01759e-06
2.13796e-07
1.46101e-07
1.0996e-07
9.38893e-08
8.64573e-08
7.40773e-08
6.57818e-08
6.87996e-08
1.00729e-07
7.76311e-08
8.48666e-08
8.21448e-08
7.81897e-08
7.25331e-08
6.4638e-08
5.46327e-08
4.42445e-08
3.40928e-08
2.39152e-08
1.4404e-08
7.31116e-09
3.2009e-09
2.94692e-09
1.36305e-11
7.23281e-11
4.27371e-11
8.43343e-10
5.45279e-10
5.28598e-10
5.18446e-10
5.12231e-10
4.94252e-10
4.966e-10
3.32462e-09
3.42586e-09
5.04034e-10
5.03306e-10
5.0926e-10
5.19756e-10
5.2502e-10
5.13459e-10
5.11726e-10
4.9885e-10
3.11751e-09
2.59613e-09
2.13649e-09
1.97477e-09
1.86696e-09
1.92359e-09
2.03451e-09
2.10286e-09
2.06001e-09
1.97301e-09
1.89909e-09
1.66961e-09
1.53688e-09
1.48384e-09
1.43782e-09
1.40743e-09
1.28093e-09
2.57895e-09
2.49453e-07
7.88974e-07
8.63611e-07
5.45875e-07
5.55271e-07
4.41735e-07
6.89156e-07
8.06919e-07
4.14092e-08
3.94569e-07
7.8391e-09
7.49956e-08
5.30212e-07
5.62422e-07
5.67131e-07
4.3306e-07
5.37872e-07
4.51634e-07
1.06227e-06
4.72593e-07
4.36505e-07
3.54465e-07
3.57217e-07
2.50349e-07
2.81978e-07
2.5323e-07
2.2368e-07
1.87718e-07
1.65093e-07
1.5221e-07
1.74312e-07
1.98503e-07
2.01359e-07
2.1891e-07
2.37113e-07
2.4416e-07
2.41408e-07
2.31928e-07
2.18624e-07
1.77085e-07
1.36524e-07
1.08895e-07
9.37273e-08
8.56044e-08
7.39989e-08
6.509e-08
7.0844e-08
1.01067e-07
8.80733e-08
7.53753e-08
8.09519e-08
7.29113e-08
6.77371e-08
6.04896e-08
5.06679e-08
4.03226e-08
3.04753e-08
2.0955e-08
1.25905e-08
6.25857e-09
2.74446e-09
2.66101e-09
1.03953e-11
9.83545e-11
4.10514e-11
5.51337e-10
5.43339e-10
5.27154e-10
5.15962e-10
5.08236e-10
4.92489e-10
1.63393e-07
3.2702e-09
3.3832e-09
1.02657e-07
5.01949e-10
5.0829e-10
5.18189e-10
3.68772e-08
5.12531e-10
5.11521e-10
4.97898e-10
3.09802e-09
2.12026e-07
2.12976e-09
1.97105e-09
1.86427e-09
1.91114e-09
2.03241e-09
2.09922e-09
2.05645e-09
7.72202e-07
8.37823e-07
1.6662e-09
1.53379e-09
1.48215e-09
1.43662e-09
1.26295e-06
1.27999e-09
6.43597e-09
3.82493e-07
5.04054e-07
5.64e-07
5.41359e-07
4.71121e-07
3.32334e-07
1.87002e-07
5.98216e-08
9.27831e-09
1.91802e-09
2.83971e-09
3.00947e-08
1.99465e-06
4.1587e-07
6.03829e-07
3.50532e-07
4.1556e-07
5.8175e-07
5.18528e-07
5.36965e-07
4.12664e-07
3.49789e-07
3.13157e-07
2.44819e-07
1.31334e-07
2.89092e-07
2.23426e-07
1.81689e-07
1.5524e-07
1.47838e-07
1.6352e-07
1.85695e-07
1.91203e-07
2.17573e-07
9.94865e-07
2.49342e-07
1.15349e-06
2.24589e-07
1.99004e-07
1.65168e-07
1.32939e-07
1.07397e-07
9.15108e-08
7.45649e-08
6.5294e-08
6.64349e-08
7.17089e-08
9.78346e-08
8.81189e-08
7.40104e-08
7.47988e-08
5.76889e-10
6.07595e-08
5.43691e-08
4.4809e-08
3.4782e-08
2.57026e-08
1.72213e-08
9.77107e-09
4.97708e-09
4.62384e-09
2.28518e-09
5.91684e-12
1.52019e-10
3.90519e-11
5.4863e-10
5.39891e-10
5.25268e-10
5.1284e-10
9.01162e-08
3.39564e-09
3.41281e-09
3.18349e-09
3.31953e-09
4.97943e-10
4.99784e-10
5.06848e-10
5.16047e-10
5.19251e-10
5.11062e-10
5.11248e-10
4.96315e-10
3.07451e-09
2.52078e-09
2.11903e-09
1.9657e-09
1.86034e-09
1.90242e-09
2.02975e-09
2.09375e-09
2.05114e-09
1.9672e-09
1.86336e-09
1.6609e-09
1.52919e-09
1.47961e-09
1.43481e-09
1.39346e-09
1.27852e-09
4.58538e-09
5.72191e-07
1.64334e-07
5.75896e-07
5.30206e-07
3.90587e-07
2.22487e-07
8.08067e-08
1.57528e-08
1.89186e-09
2.29938e-07
1.55828e-07
1.7551e-07
5.71949e-07
5.69426e-07
4.52322e-07
2.42518e-07
3.58352e-07
6.4693e-07
6.41867e-07
5.39984e-07
3.80544e-07
3.49515e-07
3.02895e-07
2.484e-07
2.74398e-07
2.50923e-07
2.10088e-07
1.74612e-07
1.54785e-07
1.45425e-07
1.57088e-07
1.76555e-07
1.79737e-07
1.90329e-07
2.01142e-07
2.06529e-07
2.07341e-07
2.02656e-07
1.17337e-06
1.56943e-07
1.26403e-07
1.02025e-07
7.68002e-08
7.3105e-08
6.41751e-08
6.42284e-08
7.17256e-08
9.17288e-08
8.02825e-08
6.89303e-08
7.02139e-08
6.64213e-08
5.38319e-08
4.69316e-08
3.76414e-08
2.82942e-08
2.03933e-08
1.35042e-08
7.53128e-09
3.70285e-09
3.79119e-09
1.86908e-09
1.48624e-12
1.17352e-10
9.07086e-10
5.43506e-10
5.3455e-10
4.08967e-08
5.08965e-10
5.00644e-10
3.26512e-09
3.19957e-09
3.07181e-09
3.23741e-09
4.935e-10
4.96942e-10
5.0499e-10
5.13622e-10
5.14951e-10
5.09209e-10
7.19799e-08
4.94062e-10
2.01188e-07
2.47308e-09
2.10509e-09
1.95859e-09
1.85479e-09
1.8951e-09
2.0266e-09
2.08653e-09
2.04427e-09
1.95842e-09
1.83039e-09
1.65419e-09
1.5235e-09
1.47626e-09
1.43242e-09
1.37787e-09
1.27667e-09
1.8957e-09
1.64994e-06
5.12167e-07
5.78449e-07
4.3604e-07
2.83771e-07
1.18504e-07
6.02725e-07
4.37037e-09
5.95313e-10
3.30286e-10
8.99946e-10
4.78726e-09
3.51495e-07
4.0907e-07
7.63656e-07
1.04833e-06
9.75985e-07
1.15623e-06
6.66715e-07
4.81822e-07
3.5832e-07
9.88014e-07
3.74962e-07
2.4942e-07
2.59654e-07
2.36815e-07
2.09141e-07
1.81022e-07
1.53833e-07
1.44997e-07
1.54511e-07
1.49833e-07
1.71692e-07
1.7555e-07
1.79822e-07
1.8302e-07
1.82702e-07
1.76244e-07
1.40265e-07
1.20776e-07
1.00446e-07
5.26772e-07
7.34909e-08
6.30513e-08
6.44154e-08
6.87658e-08
7.01535e-08
8.37258e-08
2.57933e-08
6.16173e-08
6.24815e-08
1.4574e-09
4.46921e-08
3.83881e-08
2.99279e-08
2.17058e-08
1.50645e-08
9.62749e-09
5.51553e-09
2.60213e-09
2.994e-09
1.45555e-09
3.38784e-12
1.34467e-10
8.65227e-10
5.36704e-10
5.27364e-10
5.1628e-10
5.0454e-10
4.95532e-10
3.10632e-09
3.00955e-09
2.97599e-09
3.13886e-09
4.89554e-10
4.94028e-10
5.02737e-10
5.10707e-10
5.11658e-10
5.07033e-10
8.27322e-08
3.43153e-09
2.91338e-09
2.4351e-09
2.08827e-09
1.94981e-09
1.85063e-09
1.89005e-09
2.02307e-09
2.07762e-09
2.03599e-09
1.9467e-09
8.99508e-07
1.6463e-09
1.52097e-09
1.47212e-09
1.42951e-09
1.36519e-09
1.27449e-09
4.82864e-10
4.89285e-07
5.63681e-07
8.44738e-07
2.95506e-07
1.64398e-07
7.11645e-07
6.42529e-07
2.56154e-07
7.03408e-10
6.77489e-10
2.86607e-09
2.44901e-07
1.49177e-07
2.03887e-07
1.88973e-07
3.0902e-07
4.95202e-07
6.63902e-07
6.28429e-07
2.10127e-06
3.53895e-07
3.04468e-07
2.54794e-07
2.41231e-07
1.98374e-07
2.1483e-07
2.06545e-07
2.82606e-07
1.64324e-07
1.45172e-07
1.3861e-07
1.49938e-07
1.47371e-07
1.46302e-07
1.46412e-07
1.6813e-07
1.44077e-07
1.37027e-07
1.26176e-07
5.06313e-07
9.11645e-08
7.72091e-08
6.21128e-08
6.06722e-08
6.10618e-08
1.69301e-07
7.7001e-08
7.43855e-08
6.5082e-08
5.37137e-08
4.74353e-08
2.75783e-09
3.51375e-08
2.96501e-08
2.24392e-08
1.57386e-08
2.79721e-08
6.93839e-09
3.85948e-09
1.74977e-09
2.28486e-09
4.7499e-12
3.07596e-10
7.41603e-09
5.46228e-10
5.28591e-10
5.19133e-10
5.10115e-10
4.99898e-10
4.91275e-10
2.96406e-09
2.88927e-09
2.88563e-09
3.02628e-09
3.27831e-09
4.90818e-10
4.99963e-10
5.07449e-10
7.83389e-08
5.04598e-10
5.03137e-10
3.28958e-09
2.80127e-09
2.40312e-09
2.0688e-09
1.93898e-09
3.16752e-07
1.90333e-09
2.04112e-09
2.06704e-09
2.02649e-09
1.93527e-09
1.77376e-09
1.63731e-09
1.51798e-09
1.46724e-09
1.42616e-09
1.35454e-09
1.27199e-09
1.297e-07
8.00325e-07
8.6204e-07
3.0662e-07
1.40368e-07
5.48878e-08
6.19401e-07
9.9332e-09
1.45209e-09
1.06072e-09
1.50051e-07
2.68002e-07
7.4055e-08
5.45739e-07
1.5937e-07
2.2576e-07
4.08409e-07
5.96304e-07
6.66878e-07
5.52272e-07
3.75242e-07
1.0834e-06
2.91668e-07
3.46416e-07
2.51597e-07
2.47158e-07
2.3009e-07
2.03042e-07
1.84097e-07
1.62269e-07
3.74511e-07
1.40188e-07
1.36618e-07
1.33204e-07
1.27755e-07
6.06384e-07
1.38352e-07
1.34479e-07
1.14169e-07
1.04021e-07
8.94617e-08
8.47334e-08
7.3895e-08
6.02071e-08
5.7679e-08
5.63849e-08
6.09591e-08
5.57248e-08
6.38528e-08
5.43299e-08
4.40478e-08
3.56807e-08
1.2542e-08
2.52568e-08
2.09938e-08
1.58138e-08
1.10775e-08
7.40899e-09
4.7662e-09
5.17882e-09
2.98878e-09
4.06517e-09
4.99842e-09
1.88448e-10
3.95825e-11
5.38569e-10
5.19948e-10
5.09811e-10
5.04141e-10
1.55011e-07
2.07468e-07
2.84006e-09
2.76441e-09
2.77355e-09
2.21177e-07
3.1055e-09
3.38188e-09
4.96494e-10
5.04101e-10
9.11098e-08
5.01828e-10
4.9851e-10
3.12895e-09
2.7006e-09
2.42304e-07
2.04701e-09
1.92619e-09
1.86015e-09
1.92668e-09
2.05997e-09
2.06816e-09
2.01581e-09
1.92414e-09
1.76416e-09
1.62745e-09
1.51457e-09
1.46164e-09
1.422e-09
1.3452e-09
1.26921e-09
3.90195e-11
9.04289e-08
7.7722e-07
6.87762e-07
3.76808e-08
9.62026e-09
5.84071e-09
1.78567e-09
1.41266e-09
3.85396e-09
2.30142e-07
4.89396e-07
1.00736e-06
3.25641e-07
9.25286e-07
9.67297e-07
1.21972e-06
6.53552e-07
2.0124e-06
4.62529e-07
3.44094e-07
3.23705e-07
2.75884e-07
2.33887e-07
2.16373e-07
1.45812e-07
2.242e-07
2.11836e-07
2.2617e-07
1.67225e-07
1.5502e-07
1.50715e-07
1.45733e-07
1.42283e-07
1.33875e-07
1.23134e-07
5.05269e-07
1.16219e-07
1.0728e-07
4.66514e-07
8.56398e-08
7.34022e-08
6.44667e-08
5.86726e-08
5.43963e-08
5.11906e-08
5.03998e-08
4.73308e-08
5.23069e-08
4.30475e-08
3.71534e-08
2.7132e-08
2.116e-08
1.67728e-08
3.47662e-08
1.03022e-08
7.09095e-09
4.92444e-09
3.12154e-09
3.82661e-09
6.62041e-09
6.38088e-09
1.12293e-11
8.2787e-09
8.75969e-10
5.2816e-10
5.10595e-10
5.00705e-10
1.18013e-07
4.86441e-10
3.00569e-09
2.69814e-09
2.62397e-09
2.64403e-09
2.81611e-09
2.95987e-09
3.22857e-09
4.92655e-10
1.13e-07
5.00102e-10
1.35123e-07
1.67418e-07
2.97725e-09
2.60339e-09
2.48575e-07
2.02028e-09
1.91178e-09
1.86625e-09
1.95078e-09
2.07074e-09
2.07481e-09
2.00416e-09
1.90784e-09
1.74957e-09
1.61684e-09
1.51079e-09
1.45572e-09
1.41498e-09
1.33679e-09
1.26618e-09
3.31025e-12
1.33618e-08
5.80546e-08
5.75639e-07
5.60176e-09
1.41584e-09
2.37155e-07
1.30559e-09
1.39432e-07
2.95901e-07
5.23496e-08
8.16433e-07
5.89965e-07
1.61383e-06
5.27685e-07
5.54358e-07
6.39185e-07
6.22453e-07
2.18712e-06
1.86822e-06
1.20093e-06
3.08561e-07
2.5971e-07
2.22351e-07
2.23777e-07
1.73861e-07
2.18981e-07
2.07355e-07
1.86594e-07
1.72341e-07
1.67723e-07
1.62044e-07
1.81374e-07
2.67466e-07
3.56444e-07
1.40687e-07
1.29974e-07
1.19169e-07
1.1104e-07
9.82241e-08
8.34734e-08
7.26326e-08
6.38873e-08
5.67854e-08
5.33955e-08
4.74341e-08
4.27323e-08
3.84706e-08
4.06468e-08
3.22823e-08
2.73888e-08
2.29916e-08
1.48396e-08
1.17708e-08
8.99985e-09
6.83133e-09
7.21117e-08
7.34567e-08
4.25928e-09
2.75369e-09
1.63543e-09
8.34961e-12
1.13856e-10
4.29621e-11
2.52586e-08
5.2554e-08
5.01315e-10
4.91051e-10
1.84847e-07
3.09279e-09
2.78744e-09
2.54894e-09
2.48496e-09
2.51308e-09
2.66311e-09
2.84535e-09
2.30948e-07
1.98712e-07
4.95421e-10
4.9448e-10
4.92974e-10
3.41262e-09
2.85371e-09
2.50788e-09
2.23773e-09
2.05823e-09
1.89569e-09
1.86859e-09
1.9754e-09
2.08248e-09
2.08227e-09
1.98632e-09
1.89226e-09
1.73571e-09
1.60554e-09
1.50665e-09
1.44983e-09
1.40718e-09
1.32895e-09
1.26292e-09
2.22332e-13
1.69368e-07
3.28805e-07
2.17074e-07
1.11563e-09
7.60097e-10
1.56018e-09
1.58509e-07
2.11979e-07
3.70243e-07
7.40053e-07
1.16026e-06
2.06551e-06
1.65919e-06
5.87347e-07
6.25056e-07
1.834e-06
5.5914e-07
4.21807e-07
3.55176e-07
3.181e-07
2.9513e-07
2.46013e-07
2.11152e-07
2.07464e-07
2.28183e-07
2.11241e-07
2.01127e-07
1.9323e-07
1.75982e-07
1.71539e-07
1.7707e-07
1.79406e-07
1.73563e-07
1.68631e-07
2.58304e-07
1.54028e-07
2.95457e-07
1.21469e-07
3.58986e-07
8.65649e-08
7.47764e-08
6.52399e-08
5.67396e-08
5.04047e-08
4.2787e-08
3.46074e-08
3.00846e-08
9.42766e-08
2.29887e-08
1.91097e-08
1.59217e-08
1.3151e-08
7.66547e-09
8.84423e-08
4.31221e-09
6.04672e-08
4.35899e-09
3.0109e-09
1.91713e-09
1.71703e-11
9.39663e-09
1.39389e-10
8.82183e-10
5.24972e-10
5.02886e-10
4.91905e-10
4.81394e-10
3.18967e-09
2.52919e-07
2.57341e-09
2.40907e-09
2.36272e-09
2.40535e-09
2.51491e-09
2.70495e-09
2.92135e-09
3.26994e-09
4.90544e-10
1.95313e-07
3.41256e-09
3.17204e-09
2.73037e-09
2.43306e-09
2.15536e-09
2.02153e-09
1.87702e-09
1.87108e-09
1.98815e-09
5.27087e-07
2.08816e-09
1.96834e-09
1.87234e-09
1.72241e-09
1.59153e-09
1.50019e-09
1.44341e-09
1.39876e-09
1.31593e-09
1.25829e-09
2.41852e-08
1.43136e-07
2.35339e-07
2.47303e-07
3.1218e-09
1.69416e-07
1.3723e-08
3.06729e-07
4.49322e-07
5.81421e-07
9.3929e-07
4.84618e-07
5.05765e-07
1.05431e-06
5.13858e-07
6.11753e-07
6.33094e-07
5.1513e-07
3.75192e-07
1.23024e-06
3.0858e-07
2.5286e-07
3.40572e-07
2.00109e-07
1.98175e-07
1.90029e-07
1.41892e-07
1.93251e-07
1.95885e-07
1.67135e-07
1.86796e-07
1.81319e-07
1.74293e-07
1.68258e-07
1.6159e-07
1.82374e-07
1.58503e-07
1.65056e-07
2.69792e-07
1.13184e-07
9.09452e-08
7.66721e-08
6.5751e-08
5.67814e-08
4.84209e-08
3.73095e-08
2.84469e-08
2.24818e-08
1.9979e-08
1.58709e-08
1.20504e-07
1.22063e-07
1.22183e-07
7.80326e-09
6.23614e-09
5.18e-09
4.02695e-09
3.043e-09
2.06372e-09
6.97562e-12
2.08851e-12
1.28133e-08
4.18515e-11
5.33214e-10
5.09011e-10
4.89649e-10
2.20703e-07
2.60338e-07
2.82374e-09
2.60376e-09
2.41445e-09
2.27041e-09
2.24216e-09
2.29606e-09
2.40254e-09
2.55934e-09
2.79033e-09
3.03813e-09
3.40826e-09
3.30525e-09
3.19337e-09
2.97309e-09
2.60673e-09
2.35672e-09
2.09904e-09
1.98169e-09
1.85699e-09
1.87241e-09
1.9999e-09
2.1167e-09
2.08432e-09
7.65329e-07
1.84514e-09
1.71038e-09
1.57323e-09
1.49101e-09
1.43658e-09
1.38977e-09
1.30971e-09
1.25264e-09
2.54736e-08
4.23258e-11
4.7011e-10
6.70966e-09
3.5524e-08
3.69501e-07
1.23824e-07
6.38183e-07
3.15297e-07
4.19355e-07
4.71431e-07
5.52796e-07
5.10669e-07
5.01405e-07
5.08226e-07
6.02168e-07
6.11899e-07
4.79e-07
3.55958e-07
3.23332e-07
2.96414e-07
2.41762e-07
3.34047e-07
1.88283e-07
1.88113e-07
2.2633e-07
1.95737e-07
1.85761e-07
1.14785e-07
1.95291e-07
1.29701e-07
2.0436e-07
2.15203e-07
2.06829e-07
1.81718e-07
1.73363e-07
1.81094e-07
1.72519e-07
1.35247e-07
1.14648e-07
2.24621e-07
2.46788e-07
6.70095e-08
5.64478e-08
1.66369e-07
2.95299e-08
2.10521e-08
1.91628e-07
9.86092e-09
1.08049e-08
1.54265e-07
6.99805e-09
5.88062e-09
5.16692e-09
6.65867e-08
2.66038e-08
2.80313e-09
5.83765e-09
3.54435e-12
5.12963e-12
6.43304e-11
2.50342e-08
4.15219e-08
5.17116e-10
1.25355e-07
4.76549e-10
2.658e-07
2.65132e-09
2.54101e-09
2.40035e-09
2.24186e-09
2.14229e-09
2.13086e-09
2.18523e-09
2.29287e-09
2.43878e-09
2.63564e-09
2.87932e-09
2.30125e-07
3.06862e-09
2.98405e-09
2.32759e-07
2.49115e-09
2.27987e-09
2.04411e-09
1.95173e-09
1.83811e-09
1.87012e-09
2.01346e-09
2.10947e-09
6.57294e-07
1.95723e-09
1.81788e-09
1.69753e-09
1.55411e-09
1.48136e-09
1.42847e-09
1.37706e-09
1.3036e-09
1.24714e-09
5.69731e-11
1.14625e-07
6.41596e-09
4.71276e-07
9.88819e-07
4.22689e-07
4.79345e-07
1.20753e-06
1.54475e-06
1.9925e-06
5.97632e-07
2.08972e-06
5.20176e-07
8.71235e-07
2.21113e-06
5.8944e-07
5.64156e-07
2.07054e-06
1.21058e-06
1.10673e-06
2.51287e-07
3.24376e-07
2.00642e-07
1.82673e-07
1.76153e-07
1.68992e-07
1.65166e-07
1.65207e-07
1.67407e-07
1.72492e-07
1.68445e-07
1.93955e-07
2.03398e-07
1.13049e-07
1.85485e-07
1.76795e-07
1.69177e-07
1.61078e-07
1.52931e-07
1.08181e-07
9.69168e-08
7.78466e-08
6.36207e-08
5.15088e-08
1.45377e-07
2.22116e-08
1.37348e-08
8.18868e-09
5.28705e-09
3.59051e-09
2.16905e-09
1.48465e-09
2.27918e-09
2.03156e-08
2.43708e-08
2.40624e-09
1.92482e-09
1.12322e-08
5.79943e-12
6.26967e-11
3.04328e-11
3.62621e-11
6.19193e-08
5.00022e-10
4.78965e-10
2.66938e-09
2.56905e-09
2.37501e-09
2.32016e-09
2.20321e-09
2.10592e-09
2.04789e-09
2.04668e-09
2.09475e-09
2.18494e-09
2.32761e-09
2.48978e-09
2.72367e-09
2.97173e-09
2.89853e-09
2.84917e-09
2.70095e-09
2.39807e-09
2.71098e-07
2.0589e-09
2.85255e-07
3.4268e-07
1.8679e-09
2.01591e-09
2.10231e-09
2.07754e-09
1.95182e-09
1.7903e-09
1.67837e-09
1.53484e-09
1.4713e-09
1.41668e-09
1.3646e-09
1.29744e-09
1.2422e-09
3.22584e-07
8.57783e-08
1.32249e-07
1.43021e-06
1.1533e-06
5.46156e-07
1.81263e-06
6.04341e-07
2.05927e-06
5.6427e-07
2.04899e-06
2.12335e-06
5.29332e-07
1.03464e-06
1.71556e-06
5.68252e-07
5.05689e-07
1.49184e-06
3.36059e-07
9.89696e-07
2.33611e-07
1.9818e-07
3.31896e-07
1.60095e-07
1.61801e-07
1.49135e-07
2.13025e-07
1.45758e-07
1.39669e-07
1.50135e-07
1.55646e-07
1.50397e-07
1.45884e-07
1.64926e-07
1.25373e-07
1.62159e-07
1.55687e-07
8.20524e-08
1.22525e-07
1.00034e-07
8.8805e-08
7.42023e-08
5.81126e-08
4.23307e-08
2.70435e-08
1.46713e-08
7.84007e-09
4.10998e-09
1.86088e-09
3.43321e-08
1.6312e-10
2.92925e-10
1.42065e-10
7.05735e-11
1.25718e-11
9.48821e-09
6.76852e-12
1.67299e-10
6.76583e-11
3.0397e-08
8.61288e-10
5.218e-10
5.02813e-10
4.83457e-10
2.72708e-09
2.40998e-09
2.2819e-09
2.16145e-09
3.20962e-07
2.06503e-09
2.06537e-09
2.02023e-09
2.02997e-09
2.01626e-09
2.09675e-09
2.21785e-09
2.37384e-09
2.55054e-09
2.55018e-07
2.75484e-09
2.71113e-09
2.54777e-09
2.30617e-09
2.12145e-09
1.9953e-09
1.90371e-09
1.8512e-09
1.90323e-09
2.00786e-09
2.08907e-09
7.07272e-07
1.93889e-09
1.77314e-09
1.65941e-09
1.52823e-09
1.46183e-09
1.4044e-09
1.35228e-09
1.29128e-09
1.23698e-09
7.50246e-07
1.96609e-06
8.55319e-07
2.41384e-06
7.31278e-07
2.20526e-06
4.61947e-07
1.51546e-06
1.6322e-06
4.70849e-07
4.80902e-07
1.44472e-06
5.04952e-07
5.16273e-07
5.2703e-07
2.07801e-06
4.49063e-07
3.6161e-07
3.02844e-07
2.66181e-07
3.29172e-07
2.60255e-07
1.52133e-07
3.25677e-07
2.85697e-07
2.59677e-07
2.70638e-07
1.18017e-07
1.12999e-07
1.17353e-07
1.99263e-07
1.78057e-07
1.18911e-07
1.13423e-07
1.16024e-07
1.04947e-07
1.00703e-07
1.34943e-07
1.16653e-07
1.36647e-07
7.73758e-08
6.20146e-08
1.20654e-07
3.02307e-08
2.14481e-07
8.03735e-09
1.94318e-07
1.22747e-09
2.9099e-10
2.40073e-08
1.22159e-11
6.02478e-11
8.95445e-11
1.17295e-10
1.2648e-10
1.40309e-10
9.36625e-11
2.68871e-08
3.28717e-08
8.1501e-10
8.5352e-08
1.26968e-07
4.79428e-10
2.77091e-09
2.38617e-09
2.15114e-09
2.03372e-09
1.97596e-09
2.03082e-09
1.98266e-09
1.94125e-09
1.9286e-09
1.93513e-09
1.98469e-09
2.67192e-07
2.10135e-09
2.24321e-09
2.8932e-07
2.59834e-09
2.68804e-07
2.53022e-09
2.41399e-09
2.19744e-09
2.04249e-09
1.93489e-09
3.24328e-07
1.85717e-09
1.95064e-09
2.02751e-09
6.3574e-07
2.02214e-09
1.91713e-09
1.75692e-09
1.63692e-09
1.52022e-09
1.45064e-09
1.3892e-09
1.3354e-09
1.28397e-09
1.23075e-09
3.21611e-08
1.20542e-06
1.30248e-06
6.66336e-07
4.98607e-07
4.49956e-07
3.24976e-07
3.16662e-07
3.44434e-07
3.60321e-07
9.56567e-07
9.88639e-07
9.12246e-07
4.91167e-07
1.30793e-06
4.54764e-07
3.78649e-07
1.04482e-06
1.01403e-06
2.28732e-07
1.73986e-07
1.52431e-07
1.24478e-07
1.16283e-07
2.90482e-07
2.88492e-07
2.92451e-07
9.42299e-08
3.00816e-07
8.49529e-08
8.06874e-08
8.05813e-08
7.83585e-08
7.81214e-08
8.1964e-08
8.58594e-08
8.42266e-08
8.29144e-08
1.3895e-07
7.46172e-08
1.24026e-07
9.81091e-08
1.27648e-07
1.79251e-08
7.74223e-09
3.01861e-09
3.68483e-10
2.64035e-13
2.44277e-10
5.5189e-10
5.13621e-11
1.28646e-08
1.37748e-08
1.41621e-08
3.58023e-11
3.03219e-11
3.00034e-08
5.30077e-08
5.20396e-10
1.14443e-07
1.68133e-07
2.81657e-07
2.50274e-09
2.3502e-09
2.11045e-09
1.9336e-09
1.90019e-09
1.88722e-09
1.89042e-09
1.89087e-09
1.87528e-09
1.86765e-09
1.87909e-09
1.90849e-09
1.95797e-09
1.996e-09
2.09814e-09
2.20832e-09
2.36696e-09
2.37156e-09
2.36986e-09
2.26878e-09
2.09579e-09
2.01811e-09
1.89367e-09
1.82377e-09
1.85975e-09
1.981e-09
2.06628e-09
2.06949e-09
1.96398e-09
1.88557e-09
1.73579e-09
1.61061e-09
1.50595e-09
1.43537e-09
1.37122e-09
1.32357e-09
1.27274e-09
1.22314e-09
6.34241e-08
8.69304e-08
8.48615e-07
8.14163e-07
5.19978e-07
2.8247e-07
1.45186e-07
1.56551e-07
2.0966e-07
2.53656e-07
9.18046e-07
3.56192e-07
4.04412e-07
8.32288e-07
1.05618e-06
1.02214e-06
3.25611e-07
2.70014e-07
8.53149e-07
1.7057e-07
5.30344e-07
1.22853e-07
1.1057e-07
9.11022e-08
3.26649e-07
7.95187e-08
7.24125e-08
6.82243e-08
3.39109e-07
5.48201e-08
3.14852e-07
3.18016e-07
5.01007e-08
5.05734e-08
2.94882e-07
5.23945e-08
5.51584e-08
5.8993e-08
5.83627e-08
1.61286e-07
4.39758e-08
3.05896e-08
1.73461e-08
2.67107e-07
2.73745e-09
2.49543e-10
5.50305e-11
4.10904e-10
4.82193e-10
5.21084e-10
5.30018e-10
2.6417e-08
5.35807e-10
3.78302e-08
5.30144e-10
5.65203e-08
6.47766e-08
1.03372e-07
4.88127e-10
4.7363e-10
4.59775e-10
2.26583e-09
2.13329e-09
2.0562e-09
3.86641e-07
1.84918e-09
1.81253e-09
1.80354e-09
3.94121e-07
3.75907e-07
1.82677e-09
1.82922e-09
1.82182e-09
1.85274e-09
1.89376e-09
1.9498e-09
1.98408e-09
2.0627e-09
2.16579e-09
2.19542e-09
2.19686e-09
2.13269e-09
2.77365e-07
1.93019e-09
1.84897e-09
1.84327e-09
1.86787e-09
1.99647e-09
2.0918e-09
7.1129e-07
1.94534e-09
1.83339e-09
1.71685e-09
1.57129e-09
1.48728e-09
1.41393e-09
1.35249e-09
1.31395e-09
1.26143e-09
1.21427e-09
7.35023e-08
7.66466e-08
2.82234e-07
4.72184e-07
2.72012e-07
8.63128e-08
3.38327e-08
1.06146e-08
4.18911e-08
1.09505e-07
1.90201e-07
2.68776e-07
3.41615e-07
3.90587e-07
8.29762e-07
3.38346e-07
2.8255e-07
1.01378e-06
2.00811e-07
1.45662e-07
1.15396e-07
5.08751e-07
4.85496e-07
3.36898e-07
3.24873e-07
5.62524e-08
4.82516e-08
4.57415e-08
3.76725e-08
3.32971e-08
3.44675e-07
2.63939e-08
2.66339e-08
3.3161e-07
3.00987e-08
3.42133e-08
2.94157e-07
3.94257e-08
3.77914e-08
3.41121e-08
2.57407e-08
2.44589e-07
8.13819e-09
3.08392e-09
1.94373e-07
5.94837e-08
8.29402e-08
4.95393e-10
4.91849e-10
4.93375e-10
5.00327e-10
7.94739e-08
8.33198e-08
5.05109e-10
4.99916e-10
4.95916e-10
4.89908e-10
4.74914e-10
4.61198e-10
2.21802e-09
2.06968e-09
4.40042e-07
1.89577e-09
4.2454e-07
1.82408e-09
1.80274e-09
1.82445e-09
1.83632e-09
1.84373e-09
1.84776e-09
4.08718e-07
1.84962e-09
1.84371e-09
1.8296e-09
1.83745e-09
1.89164e-09
1.93291e-09
2.01011e-09
2.02426e-09
3.02285e-07
2.06549e-09
2.03034e-09
1.97008e-09
1.88429e-09
1.82362e-09
1.85178e-09
1.93614e-09
2.01067e-09
2.08212e-09
2.02891e-09
1.92036e-09
1.78055e-09
1.68092e-09
1.54278e-09
1.46975e-09
1.39197e-09
1.33443e-09
1.30413e-09
1.25101e-09
1.20295e-09
7.47907e-08
7.67464e-08
2.15139e-07
3.19421e-07
2.8808e-07
2.88e-07
2.40179e-07
1.149e-07
2.68887e-08
3.43643e-09
6.42595e-08
7.48534e-07
2.65971e-07
8.82035e-07
3.28989e-07
2.94026e-07
2.49996e-07
1.83655e-07
1.48335e-07
1.17835e-07
8.84831e-08
8.48347e-07
5.93878e-08
5.20179e-08
3.89972e-08
3.39251e-08
2.73845e-08
3.9498e-07
2.31757e-08
3.47945e-07
1.64358e-08
1.55105e-08
2.96965e-07
1.38331e-08
3.17765e-07
1.97577e-08
2.20696e-08
2.41183e-08
2.49552e-08
2.04589e-08
1.29289e-08
6.84985e-09
2.73773e-09
2.29864e-07
6.46621e-11
4.43903e-10
2.86592e-09
2.57681e-09
2.61788e-09
2.7045e-09
2.48717e-07
2.45958e-07
2.39985e-07
4.75227e-10
2.71981e-07
4.66157e-10
2.54174e-09
3.59108e-07
2.08556e-09
1.949e-09
1.84284e-09
1.80988e-09
1.78879e-09
1.77917e-09
1.80485e-09
1.82199e-09
1.88559e-09
1.90588e-09
1.90229e-09
1.88413e-09
1.86751e-09
1.85039e-09
1.8467e-09
1.84523e-09
1.83261e-09
1.8375e-09
3.37611e-07
1.9085e-09
1.95826e-09
2.0044e-09
2.01415e-09
1.98591e-09
3.27679e-07
1.8308e-09
1.84002e-09
1.84989e-09
1.97647e-09
2.0558e-09
2.04528e-09
1.97682e-09
1.88364e-09
1.75863e-09
1.64429e-09
1.52831e-09
1.45309e-09
1.36985e-09
1.32338e-09
1.29204e-09
1.24056e-09
1.19179e-09
7.49375e-08
7.65781e-08
1.35346e-07
2.65351e-07
3.31873e-07
3.47565e-07
3.80869e-07
3.42668e-07
1.4687e-07
2.32343e-08
2.00805e-10
5.6533e-08
1.43018e-07
2.16366e-07
2.34808e-07
2.13932e-07
1.82165e-07
5.58195e-07
1.14967e-07
8.70434e-08
6.30922e-08
4.69929e-08
3.70668e-08
2.95524e-08
2.33779e-08
4.81441e-07
1.54158e-08
1.25069e-08
9.64392e-09
7.82598e-09
5.99727e-09
5.18914e-09
5.86785e-09
7.36555e-09
9.78989e-09
9.60037e-09
1.22134e-08
3.20136e-07
1.31581e-08
1.02042e-08
5.28248e-09
1.99148e-09
2.30794e-07
1.72368e-11
4.11773e-10
2.50109e-09
2.77968e-07
2.10648e-09
2.1213e-09
2.20614e-09
2.38119e-09
2.43252e-09
2.41462e-09
2.40268e-09
2.28769e-09
2.15471e-09
2.06701e-09
1.95721e-09
1.85678e-09
1.7882e-09
1.72953e-09
1.71581e-09
1.76028e-09
1.7918e-09
5.85401e-07
1.91418e-09
1.91999e-09
1.94039e-09
1.96022e-09
1.96718e-09
1.95444e-09
1.9408e-09
1.9135e-09
1.85088e-09
1.84372e-09
1.82864e-09
1.82077e-09
1.85128e-09
1.88318e-09
1.90208e-09
1.91501e-09
1.90936e-09
1.84806e-09
1.82904e-09
1.84495e-09
1.93001e-09
1.98283e-09
6.414e-07
2.05291e-09
1.93828e-09
1.82697e-09
1.72698e-09
1.59711e-09
1.50128e-09
1.42265e-09
1.34609e-09
1.31196e-09
1.27738e-09
1.22786e-09
1.18038e-09
7.46677e-08
7.34439e-08
8.72796e-08
1.49259e-07
1.89779e-07
1.81346e-07
2.35742e-07
3.62225e-07
3.23854e-07
1.05246e-07
8.68754e-09
1.31241e-09
5.24911e-08
8.17277e-07
1.64783e-07
3.37934e-07
3.39138e-07
1.08136e-07
6.40645e-07
5.4774e-08
9.34799e-07
3.02318e-08
2.12111e-08
1.31059e-08
8.99195e-07
8.80025e-07
4.94365e-09
4.33637e-07
2.74871e-09
1.91001e-09
1.26611e-09
9.00907e-10
1.71586e-07
1.58471e-09
2.84656e-09
4.47876e-09
2.0942e-07
5.72851e-09
5.36458e-09
2.28256e-07
1.29236e-09
2.04234e-07
4.01335e-11
1.71142e-09
2.18661e-09
2.01297e-09
1.92704e-09
1.8712e-09
1.88308e-09
1.94415e-09
3.75062e-07
1.96487e-09
1.96597e-09
4.18138e-07
4.31132e-07
1.8644e-09
1.83426e-09
1.76455e-09
4.96274e-07
1.69237e-09
1.6974e-09
1.73008e-09
1.81418e-09
1.87331e-09
1.9119e-09
1.95466e-09
1.96741e-09
1.99697e-09
2.00972e-09
1.99491e-09
5.64881e-07
1.95178e-09
1.95105e-09
1.92545e-09
1.8659e-09
1.84179e-09
1.83169e-09
1.81469e-09
1.82298e-09
1.84016e-09
3.70182e-07
3.72183e-07
1.81929e-09
1.84252e-09
1.87648e-09
1.97155e-09
2.03348e-09
2.04462e-09
2.03239e-09
1.91207e-09
1.77547e-09
1.68769e-09
1.55442e-09
1.4772e-09
1.39362e-09
1.33345e-09
1.29772e-09
1.2626e-09
1.21267e-09
1.17589e-09
7.41426e-08
7.01217e-08
6.71204e-08
7.89443e-08
8.38367e-08
7.73675e-08
1.15808e-07
2.44778e-07
3.63455e-07
2.38315e-07
4.96291e-08
2.49061e-09
6.09143e-09
5.2919e-08
8.90095e-08
9.49011e-08
7.68941e-08
6.17377e-08
4.03521e-08
3.15389e-08
2.14303e-08
1.29371e-08
6.62365e-07
5.49865e-09
3.32243e-09
3.38757e-07
1.05226e-09
4.43231e-08
3.25614e-10
3.14056e-10
6.33459e-10
1.0765e-09
1.12028e-09
9.64903e-10
6.50016e-10
5.46057e-10
8.06021e-10
1.3629e-09
1.09763e-09
5.81995e-10
4.26604e-11
8.20474e-10
1.69889e-09
2.03215e-09
1.85695e-09
3.59004e-07
1.76916e-09
1.77665e-09
1.7924e-09
1.7855e-09
4.38808e-07
1.79612e-09
1.7923e-09
1.80087e-09
1.77191e-09
1.72377e-09
1.68906e-09
1.68613e-09
1.69087e-09
6.24125e-07
1.73301e-09
1.76421e-09
1.83736e-09
1.89309e-09
1.89708e-09
1.89895e-09
1.91768e-09
1.94293e-09
1.97753e-09
2.00973e-09
2.01919e-09
2.00301e-09
1.96836e-09
1.93777e-09
1.93049e-09
1.86832e-09
1.83874e-09
1.83573e-09
1.82753e-09
1.81981e-09
1.8118e-09
4.13478e-07
1.83867e-09
1.84983e-09
1.94332e-09
1.97545e-09
2.06669e-09
2.04382e-09
1.97519e-09
1.87276e-09
1.74201e-09
1.64326e-09
1.53294e-09
1.45025e-09
1.36393e-09
1.32055e-09
1.28183e-09
1.24827e-09
1.1976e-09
1.16764e-09
7.32894e-08
6.53843e-08
5.84674e-08
5.26508e-08
4.51347e-08
3.762e-08
6.23912e-08
1.62103e-07
3.08385e-07
3.1842e-07
1.34746e-07
2.04082e-08
1.22787e-09
8.97671e-09
2.77766e-08
3.8982e-08
8.43288e-07
7.87513e-07
2.10989e-08
6.92909e-07
6.46407e-09
3.15562e-09
1.55215e-09
8.67268e-10
5.62247e-10
1.5833e-11
3.66224e-08
6.66248e-10
5.31209e-08
8.68413e-10
7.30744e-10
1.04483e-09
5.43556e-08
1.44178e-09
1.47917e-09
9.4521e-10
4.66227e-10
1.59266e-07
5.3893e-10
2.12285e-07
8.75431e-10
1.35663e-09
1.86334e-09
3.30994e-07
1.6895e-09
1.69537e-09
5.14841e-07
1.76998e-09
5.40365e-07
1.80036e-09
5.44834e-07
1.7507e-09
1.73741e-09
1.73634e-09
5.78959e-07
1.68055e-09
1.68085e-09
1.70066e-09
1.71106e-09
1.71344e-09
1.72534e-09
1.73788e-09
1.77443e-09
8.10606e-07
1.83147e-09
1.83105e-09
1.84486e-09
1.90045e-09
1.94624e-09
1.96676e-09
1.96081e-09
1.98842e-09
1.98483e-09
1.97489e-09
1.93315e-09
1.9351e-09
1.89839e-09
1.83874e-09
1.83823e-09
1.83904e-09
1.8361e-09
1.83819e-09
4.92211e-07
1.93355e-09
1.96636e-09
2.03796e-09
2.03902e-09
2.03698e-09
1.93601e-09
1.80438e-09
1.70784e-09
1.58569e-09
1.50091e-09
1.41674e-09
1.34545e-09
1.30423e-09
1.26712e-09
1.22925e-09
1.18931e-09
1.15842e-09
7.18343e-08
5.94623e-08
4.66433e-08
3.61162e-08
2.42781e-08
1.86672e-08
4.32951e-08
1.32539e-07
2.6526e-07
3.27224e-07
2.17265e-07
6.59075e-08
9.66848e-09
3.05788e-10
4.75062e-09
5.58873e-07
1.34629e-08
9.07189e-09
5.79533e-07
1.88647e-09
5.97944e-10
2.55995e-10
1.19796e-10
9.50141e-08
2.26992e-11
1.03289e-10
2.83731e-10
9.31043e-10
6.53868e-08
6.6514e-10
4.1722e-10
4.75003e-10
6.64853e-10
9.78373e-10
1.64513e-09
6.43252e-08
1.80815e-09
1.45106e-09
1.39259e-09
2.14679e-07
1.24425e-09
3.06206e-07
1.58346e-09
4.75715e-07
5.57536e-07
1.57445e-09
1.61384e-09
1.66553e-09
1.74617e-09
6.44445e-07
1.77146e-09
1.73832e-09
1.72321e-09
1.73148e-09
1.71177e-09
1.67963e-09
1.67402e-09
1.68072e-09
1.66786e-09
1.63969e-09
1.63091e-09
1.64385e-09
1.65882e-09
1.69534e-09
1.70359e-09