/*--------------------------------*- C++ -*----------------------------------*\
  =========                 |
  \\      /  F ield         | OpenFOAM: The Open Source CFD Toolbox
   \\    /   O peration     | Website:  https://openfoam.org
    \\  /    A nd           | Version:  6
     \\/     M anipulation  |
\*---------------------------------------------------------------------------*/
FoamFile
{
    version     2.0;
    format      ascii;
    class       volScalarField;
    location    "0.1";
    object      CH2CH2OH;
}
// * * * * * * * * * * * * * * * * * * * * * * * * * * * * * * * * * * * * * //

dimensions      [0 0 0 0 0 0 0];

internalField   nonuniform List<scalar> 
8000
(
2.68003e-08
6.95912e-07
1.29554e-06
7.36376e-07
4.10639e-07
6.97315e-07
1.18277e-06
1.23534e-06
8.13574e-07
3.28648e-07
1.01531e-07
6.79474e-08
1.80225e-07
1.05584e-06
9.95549e-07
1.03133e-06
9.07981e-07
6.94641e-09
4.91995e-07
1.2876e-06
1.21829e-06
5.4262e-07
1.72545e-07
1.00746e-07
6.41639e-08
7.17717e-08
7.94347e-08
7.32499e-08
7.57715e-08
8.99007e-07
2.89974e-08
5.27258e-08
6.33912e-08
7.6839e-08
1.05855e-07
1.4812e-07
1.82001e-07
1.76339e-07
1.32514e-07
1.00001e-07
9.14467e-08
6.86702e-08
4.26701e-08
2.63031e-08
1.88465e-08
1.49875e-08
1.3776e-08
1.72069e-08
3.40717e-08
9.56394e-07
9.0344e-12
4.45853e-08
4.07317e-08
3.84495e-08
3.50021e-08
3.05462e-08
2.53276e-08
1.95756e-08
1.33563e-08
7.52713e-09
3.40111e-09
1.28106e-09
9.71749e-10
7.20927e-14
5.84139e-11
8.76153e-12
1.60032e-10
9.93166e-11
9.20676e-11
8.86296e-11
6.95062e-09
8.00934e-11
8.05179e-11
5.37731e-10
5.57261e-10
8.35322e-11
8.34473e-11
8.52756e-11
8.89124e-11
8.99986e-11
8.55509e-11
8.45352e-11
8.06054e-11
4.95492e-10
4.05358e-10
3.35242e-10
3.00352e-10
2.90694e-10
1.49844e-07
3.46858e-10
3.84306e-10
4.03205e-10
4.05164e-10
4.01661e-10
3.98713e-10
3.95643e-10
4.01501e-10
4.04611e-10
3.95702e-10
4.16777e-10
2.51533e-08
7.80609e-07
1.30246e-06
6.74038e-07
3.81055e-07
6.91658e-07
1.20386e-06
1.22817e-06
7.7517e-07
2.88375e-07
8.69712e-08
8.03474e-08
3.06711e-07
1.54068e-06
1.56096e-06
1.27819e-06
1.67182e-06
1.33928e-06
1.14333e-06
1.1589e-06
1.02042e-06
4.74631e-07
1.64083e-07
9.94948e-08
6.45581e-08
7.67214e-08
8.01766e-08
7.28437e-08
6.93582e-08
9.64743e-08
4.67466e-08
4.84355e-08
5.8943e-08
7.10492e-08
9.57049e-08
1.3058e-07
1.59798e-07
1.57352e-07
1.19111e-07
4.68594e-07
8.11907e-08
6.36874e-08
4.05341e-08
2.55264e-08
1.85422e-08
1.50065e-08
1.38718e-08
1.70611e-08
3.3077e-08
3.44936e-08
4.20992e-08
4.21706e-08
4.06862e-08
3.79001e-08
3.42598e-08
2.95966e-08
2.42076e-08
1.84202e-08
1.23746e-08
6.89328e-09
3.12412e-09
1.17935e-09
9.19306e-10
3.60789e-12
1.63601e-11
8.58578e-12
1.58388e-10
9.91256e-11
9.19489e-11
8.82889e-11
8.5721e-11
7.9897e-11
8.0525e-11
5.33784e-10
5.53999e-10
8.35177e-11
8.33095e-11
8.5181e-11
8.87194e-11
9.01398e-11
8.5467e-11
8.45592e-11
8.05411e-11
4.94037e-10
4.06255e-10
3.34923e-10
3.00198e-10
2.90678e-10
3.08234e-10
3.47031e-10
3.84339e-10
4.03334e-10
4.0556e-10
4.01854e-10
3.98814e-10
3.95673e-10
4.01706e-10
4.04888e-10
3.95752e-10
4.17154e-10
3.83606e-08
1.14823e-06
2.72692e-06
1.7165e-06
6.80106e-07
1.01059e-06
1.25824e-06
2.61098e-06
3.14104e-06
3.15572e-07
2.80231e-06
9.01734e-08
4.62751e-07
6.1385e-07
8.43334e-07
1.41114e-06
1.4449e-06
1.52746e-06
3.81407e-07
2.92308e-08
3.86488e-07
3.24565e-07
1.46003e-07
9.64451e-08
6.51193e-08
9.58688e-08
8.68172e-08
7.20578e-08
5.89617e-08
5.02008e-08
4.00812e-08
4.2781e-08
5.22429e-08
6.1945e-08
7.8227e-08
9.83692e-08
1.18823e-07
1.21923e-07
1.05729e-07
8.73116e-08
7.5635e-08
5.56806e-08
3.62137e-08
2.36864e-08
1.78896e-08
1.51348e-08
1.40858e-08
1.78056e-08
3.17893e-08
3.46932e-08
3.48083e-08
4.2092e-08
3.9433e-08
3.62499e-08
3.23521e-08
2.73826e-08
2.18071e-08
1.61448e-08
1.05395e-08
5.85649e-09
2.60484e-09
9.8855e-10
8.15623e-10
2.71948e-12
2.20444e-11
8.20822e-12
1.03226e-10
9.86592e-11
9.17152e-11
8.76512e-11
8.45135e-11
7.95544e-11
1.50166e-08
5.24867e-10
5.46953e-10
1.31614e-08
8.30152e-11
8.49769e-11
8.83177e-11
5.95125e-09
8.52777e-11
8.46163e-11
8.03878e-11
4.91263e-10
3.23283e-08
3.34198e-10
2.99991e-10
2.90655e-10
3.07872e-10
3.47435e-10
3.84416e-10
4.03618e-10
5.97182e-07
6.53128e-07
3.99034e-10
3.95749e-10
4.02169e-10
4.05498e-10
1.32018e-06
4.17986e-10
8.34998e-08
1.49604e-06
9.74194e-07
7.68405e-07
1.01088e-06
1.2012e-06
1.17299e-06
8.65836e-07
3.99375e-07
1.04339e-07
2.75879e-08
3.84432e-08
2.46424e-07
5.55828e-06
5.54615e-13
1.01323e-06
1.29534e-06
1.42729e-06
8.64152e-07
5.48368e-07
5.97877e-07
3.0081e-07
1.29925e-07
8.13773e-08
6.53156e-08
3.99249e-12
1.02894e-07
7.08051e-08
5.33037e-08
4.16928e-08
3.59001e-08
3.84882e-08
4.67616e-08
5.38235e-08
6.19612e-08
4.24831e-07
8.05506e-08
1.1731e-06
8.21873e-08
7.42698e-08
6.24614e-08
4.50526e-08
3.05113e-08
2.11079e-08
1.56385e-08
1.37177e-08
1.5053e-08
1.86901e-08
3.08528e-08
3.39432e-08
3.38937e-08
4.01329e-08
3.24546e-15
3.31058e-08
2.90835e-08
2.39374e-08
1.84566e-08
1.32044e-08
8.32326e-09
4.36209e-09
1.99886e-09
1.61439e-09
6.83408e-10
1.52141e-12
3.36331e-11
7.75325e-12
1.02209e-10
9.77958e-11
9.14677e-11
8.68663e-11
1.17157e-08
5.48022e-10
5.51158e-10
5.10772e-10
5.36484e-10
8.20973e-11
8.25749e-11
8.46815e-11
8.77658e-11
8.8367e-11
8.49721e-11
8.47152e-11
8.01175e-11
4.8806e-10
3.95109e-10
3.3303e-10
2.99714e-10
2.90637e-10
3.07969e-10
3.48086e-10
3.84537e-10
4.04055e-10
4.08418e-10
4.02003e-10
3.99363e-10
3.95877e-10
4.02875e-10
4.06424e-10
4.01678e-10
4.19275e-10
6.26396e-08
1.36399e-06
1.41035e-09
4.92449e-07
1.14541e-06
1.23216e-06
9.53226e-07
4.86108e-07
1.54673e-07
2.73088e-08
2.00203e-06
1.6385e-06
1.81348e-06
1.44931e-06
1.23516e-06
1.4163e-06
1.06132e-06
1.38144e-06
1.50312e-06
1.10289e-06
6.81752e-07
2.42312e-07
1.12353e-07
7.72379e-08
6.73333e-08
9.35541e-08
8.35606e-08
6.42906e-08
4.87928e-08
3.90758e-08
3.41792e-08
3.63597e-08
4.3152e-08
4.84407e-08
5.41082e-08
6.03835e-08
6.7625e-08
6.87993e-08
6.37007e-08
8.60567e-07
4.59812e-08
3.3961e-08
2.4579e-08
1.68007e-08
1.517e-08
1.39699e-08
1.55305e-08
1.96893e-08
2.9844e-08
3.1773e-08
3.1498e-08
3.65668e-08
3.61361e-08
2.86418e-08
2.46157e-08
1.96313e-08
1.46073e-08
1.00776e-08
6.21677e-09
3.19081e-09
1.42671e-09
1.27666e-09
5.43293e-10
3.73904e-13
2.55758e-11
1.78489e-10
1.00576e-10
9.64491e-11
7.59876e-09
8.59479e-11
8.26961e-11
5.26379e-10
5.14836e-10
4.92865e-10
5.23017e-10
8.10377e-11
8.20161e-11
8.43063e-11
8.71375e-11
8.71038e-11
8.45931e-11
9.01624e-09
7.97105e-11
2.10373e-08
3.88138e-10
3.31517e-10
2.99345e-10
2.90555e-10
3.08435e-10
3.48983e-10
3.84706e-10
4.04655e-10
4.09845e-10
4.00794e-10
3.99796e-10
3.96148e-10
4.03844e-10
4.07647e-10
4.05042e-10
4.20924e-10
2.87902e-08
6.8781e-06
2.83141e-07
8.82989e-07
1.28706e-06
1.10623e-06
6.35405e-07
2.98754e-06
5.65712e-08
9.4018e-09
5.27919e-09
1.35433e-08
6.01962e-08
1.362e-06
1.39828e-06
5.52652e-06
7.13202e-06
6.49245e-06
6.62703e-06
1.2991e-06
5.35183e-07
1.67235e-07
9.91098e-08
1.5897e-09
6.88339e-08
8.32866e-08
7.5144e-08
6.23935e-08
5.00383e-08
3.84386e-08
3.41672e-08
3.59345e-08
3.66038e-08
4.46075e-08
4.88934e-08
5.36087e-08
5.70951e-08
5.61908e-08
5.00694e-08
3.78104e-08
3.1247e-08
2.37713e-08
1.23198e-07
1.53831e-08
1.31785e-08
1.46806e-08
1.8077e-08
2.02611e-08
2.77613e-08
1.24897e-13
2.77134e-08
3.14058e-08
1.71604e-15
2.31631e-08
1.95243e-08
1.50704e-08
1.08116e-08
7.1228e-09
4.18101e-09
2.2026e-09
9.59513e-10
9.70535e-10
4.1018e-10
8.31134e-13
2.88751e-11
1.68472e-10
9.85494e-11
9.45682e-11
8.94263e-11
8.49615e-11
8.16699e-11
5.00563e-10
4.8356e-10
4.77511e-10
5.07195e-10
8.01268e-11
8.14337e-11
8.38534e-11
8.63986e-11
8.62281e-11
8.41701e-11
1.03855e-08
5.53085e-10
4.62544e-10
3.82864e-10
3.29701e-10
2.98889e-10
2.90878e-10
3.0934e-10
3.50162e-10
3.84924e-10
4.05425e-10
4.10942e-10
7.59016e-07
4.00371e-10
3.97661e-10
4.05079e-10
4.09171e-10
4.08225e-10
4.22894e-10
8.18103e-09
1.73068e-06
9.53248e-07
3.01487e-06
1.16834e-06
8.02409e-07
3.07379e-06
3.61451e-06
2.13506e-06
1.07798e-08
1.03606e-08
3.84598e-08
2.26707e-06
7.72226e-07
9.43885e-07
8.95946e-07
1.2352e-06
1.69183e-06
1.774e-06
1.07802e-06
3.47291e-06
1.22797e-07
7.76918e-08
6.29525e-08
6.66882e-08
1.57458e-11
2.04218e-11
6.12042e-08
6.86046e-11
4.20681e-08
3.543e-08
3.34975e-08
3.69852e-08
3.78542e-08
3.91575e-08
4.10421e-08
4.81067e-08
4.08399e-08
3.66312e-08
3.1996e-08
1.3518e-07
2.06924e-08
1.64821e-08
1.29074e-08
1.27e-08
1.43969e-08
9.7521e-12
2.2717e-08
2.4184e-08
2.45003e-08
2.26295e-08
2.24116e-08
5.53752e-15
1.74781e-08
1.44522e-08
1.07903e-08
7.47868e-09
2.12388e-13
2.82273e-09
1.44293e-09
6.19697e-10
7.13099e-10
1.29515e-12
7.34622e-11
1.96532e-09
1.05365e-10
9.64395e-11
9.22983e-11
8.80306e-11
8.40051e-11
8.08708e-11
4.77578e-10
4.63812e-10
4.63074e-10
4.8927e-10
5.35119e-10
8.07944e-11
8.33385e-11
8.56201e-11
1.14672e-08
8.37084e-11
8.29953e-11
5.29497e-10
4.44537e-10
3.78703e-10
3.27604e-10
2.98313e-10
1.47441e-07
3.13447e-10
3.55438e-10
3.85257e-10
4.06438e-10
4.12473e-10
3.99553e-10
4.01203e-10
3.99468e-10
4.06575e-10
4.11004e-10
4.11273e-10
4.25173e-10
1.19718e-06
4.72019e-06
3.39137e-06
1.2493e-06
7.36146e-07
3.79749e-07
3.43253e-06
1.08985e-07
2.10434e-08
1.55955e-08
1.55024e-06
2.48264e-06
4.68432e-07
3.85848e-06
8.0516e-07
1.02773e-06
1.5106e-06
1.81247e-06
1.56347e-06
7.70204e-07
2.17459e-07
1.07776e-07
7.13411e-08
6.37953e-10
7.22803e-08
7.99135e-08
7.09904e-08
6.01421e-08
5.18223e-08
4.24618e-08
3.01952e-09
3.57292e-08
3.56916e-08
3.51701e-08
3.40266e-08
2.31042e-07
3.74166e-08
3.58337e-08
2.9948e-08
2.6152e-08
2.12036e-08
1.87529e-08
1.5606e-08
1.24927e-08
1.21326e-08
1.29643e-08
1.57726e-08
1.56321e-08
1.98995e-08
1.9085e-08
1.72731e-08
1.55644e-08
8.1611e-14
1.18999e-08
9.70085e-09
7.20369e-09
4.97204e-09
3.10539e-09
1.80109e-09
1.81218e-09
1.01681e-09
3.43112e-10
8.37894e-10
4.36207e-11
8.2235e-12
1.02749e-10
9.41915e-11
8.98777e-11
8.67889e-11
2.11931e-08
2.49316e-08
4.57593e-10
4.43642e-10
4.45155e-10
3.18661e-08
5.06125e-10
5.55945e-10
8.27364e-11
8.48623e-11
1.32682e-08
8.32127e-11
8.20569e-11
5.0324e-10
4.28629e-10
5.15005e-08
3.25272e-10
2.97608e-10
2.95306e-10
3.19547e-10
3.61234e-10
3.88156e-10
4.07659e-10
4.14468e-10
4.03684e-10
4.02304e-10
4.01617e-10
4.08338e-10
4.13027e-10
4.14317e-10
4.27843e-10
6.71484e-10
5.8359e-07
3.68956e-06
3.32429e-06
2.94129e-07
1.07542e-07
7.17915e-08
2.56084e-08
2.05538e-08
4.9258e-08
2.27639e-06
3.91486e-06
4.86339e-06
1.31945e-06
5.40621e-06
5.91256e-06
6.76007e-06
1.50934e-06
6.60254e-06
4.7174e-07
1.61466e-07
9.09401e-08
6.59455e-08
5.65224e-08
2.43926e-11
6.61568e-12
6.96619e-08
6.32234e-08
2.75985e-11
4.50163e-08
4.09053e-08
4.05294e-08
4.19886e-08
4.09544e-08
3.74243e-08
3.43226e-08
9.18958e-08
3.15578e-08
2.89006e-08
5.75866e-08
2.02934e-08
1.63823e-08
1.38497e-08
1.24112e-08
1.16497e-08
1.15497e-08
1.23578e-08
1.28612e-08
1.5778e-08
1.43727e-08
1.36317e-08
1.08722e-08
9.07596e-09
7.39346e-09
2.50429e-13
4.39613e-09
2.99251e-09
1.91777e-09
1.0984e-09
1.25515e-09
2.62103e-10
7.70319e-10
2.8181e-12
2.204e-09
1.78771e-10
9.97468e-11
9.17813e-11
8.7621e-11
2.0701e-08
8.13385e-11
4.92491e-10
4.3467e-10
4.2121e-10
4.24368e-10
4.5532e-10
4.82014e-10
5.30071e-10
8.20406e-11
1.65422e-08
8.35695e-11
1.66039e-08
1.81876e-08
4.78676e-10
4.13577e-10
5.65879e-08
3.2228e-10
2.96847e-10
2.98285e-10
3.26073e-10
3.66054e-10
3.92498e-10
4.09128e-10
4.16538e-10
4.0682e-10
4.03604e-10
4.04139e-10
4.10444e-10
4.1463e-10
4.17417e-10
4.30853e-10
5.8164e-11
1.46379e-07
4.1382e-07
3.53172e-06
7.04461e-08
2.13357e-08
2.09494e-06
1.94272e-08
1.4498e-06
2.896e-06
3.52598e-07
5.7182e-06
1.27788e-06
4.97812e-06
1.50831e-06
1.56184e-06
1.4598e-06
9.75001e-07
4.5037e-06
2.58977e-06
5.16252e-07
8.07741e-08
6.06654e-08
5.25844e-08
6.20614e-08
1.07433e-11
6.66214e-08
6.11153e-08
5.35324e-08
4.74471e-08
4.60041e-08
4.62562e-08
6.00526e-08
9.55181e-10
3.2904e-09
4.24365e-08
3.82404e-08
3.44528e-08
3.08413e-08
2.58347e-08
2.02548e-08
1.65921e-08
1.4118e-08
1.24746e-08
1.17664e-08
1.07615e-08
1.03362e-08
1.03673e-08
1.20881e-08
1.03763e-08
9.44858e-09
8.46935e-09
5.74852e-09
4.77164e-09
3.60407e-09
2.70989e-09
6.17874e-13
5.50144e-11
1.4009e-09
8.45355e-10
4.84246e-10
2.25155e-12
2.7318e-11
9.34889e-12
7.28791e-09
1.36874e-08
8.95878e-11
8.53845e-11
2.85056e-08
5.1496e-10
4.5549e-10
4.11407e-10
3.99604e-10
4.04055e-10
4.3019e-10
4.6314e-10
3.29128e-08
2.54511e-08
8.30318e-11
8.24289e-11
8.15555e-11
5.58824e-10
4.58625e-10
3.99387e-10
3.55699e-10
3.14904e-10
2.96109e-10
3.01069e-10
3.3305e-10
3.7151e-10
3.97467e-10
4.0969e-10
4.19006e-10
4.10151e-10
4.05751e-10
4.06964e-10
4.12989e-10
4.16393e-10
4.20446e-10
4.34274e-10
3.88939e-12
1.52989e-06
2.60072e-06
1.84624e-06
1.73562e-08
1.21737e-08
2.34302e-08
1.59607e-06
2.1259e-06
3.28206e-06
5.56467e-06
7.24512e-06
2.7146e-06
2.23701e-06
9.42673e-07
1.23159e-06
7.15608e-06
6.61783e-07
2.78593e-07
1.4585e-07
9.41269e-08
7.32473e-08
5.67203e-08
4.93311e-08
5.41309e-08
6.7927e-08
6.43046e-08
5.92403e-08
5.65535e-08
5.11655e-08
4.96963e-08
5.30831e-08
5.82121e-08
5.62591e-08
5.33535e-08
8.37384e-10
4.93971e-08
1.39946e-09
3.60877e-08
3.39057e-09
2.20904e-08
1.77739e-08
1.50674e-08
1.31543e-08
1.16162e-08
9.90477e-09
8.39091e-09
8.05863e-09
1.90237e-12
7.17618e-09
6.21964e-09
5.42527e-09
4.65867e-09
2.85297e-09
8.81606e-13
1.58415e-09
7.10556e-11
1.46941e-09
9.23967e-10
5.51834e-10
4.73634e-12
2.17723e-09
3.21091e-11
1.86628e-10
1.03021e-10
9.27963e-11
8.74192e-11
8.32921e-11
5.42045e-10
4.8138e-08
4.20135e-10
3.89559e-10
3.8066e-10
3.87572e-10
4.06671e-10
4.39965e-10
4.79333e-10
5.42502e-10
8.20512e-11
2.41701e-08
5.62984e-10
5.17701e-10
4.38838e-10
3.88643e-10
3.44211e-10
3.11132e-10
2.95186e-10
3.04184e-10
3.38457e-10
3.78169e-07
4.02698e-10
4.10563e-10
4.2081e-10
4.13715e-10
4.07862e-10
4.09648e-10
4.15866e-10
4.18528e-10
4.22961e-10
4.37663e-10
2.43585e-07
1.60402e-06
2.07337e-06
2.17639e-06
4.35499e-08
1.76082e-06
1.48183e-07
2.76813e-06
3.71792e-06
4.45894e-06
6.30728e-06
1.30129e-06
4.89774e-07
9.21156e-08
5.3168e-07
9.6437e-07
9.74804e-07
5.22048e-07
1.66407e-07
2.50933e-07
8.27224e-08
5.98566e-08
1.29445e-09
4.67795e-08
5.0142e-08
1.34566e-11
5.99471e-12
5.74957e-08
6.08272e-08
1.00149e-11
5.82363e-08
5.68785e-08
5.63653e-08
5.42768e-08
5.18909e-08
5.97213e-08
5.15305e-08
5.46121e-08
8.31957e-10
3.28889e-08
2.44951e-08
1.92465e-08
1.60108e-08
1.39711e-08
1.18939e-08
8.86582e-09
6.925e-09
5.83353e-09
5.55123e-09
4.77984e-09
3.8171e-12
3.82623e-12
3.4747e-12
2.6624e-09
2.14279e-09
1.76764e-09
1.35241e-09
9.47758e-10
5.92909e-10
1.88816e-12
5.39428e-13
5.9441e-09
9.3221e-12
1.09855e-10
9.80017e-11
8.9273e-11
3.99756e-08
5.1764e-08
4.77495e-10
4.3161e-10
3.9487e-10
3.67751e-10
3.61985e-10
3.70713e-10
3.8922e-10
4.16413e-10
4.57738e-10
5.03332e-10
5.69235e-10
5.48194e-10
5.25511e-10
4.84684e-10
4.19202e-10
3.77652e-10
3.37001e-10
3.07042e-10
2.9433e-10
3.07452e-10
3.44124e-10
3.87172e-10
4.06563e-10
6.59246e-07
4.21209e-10
4.17754e-10
4.09255e-10
4.12101e-10
4.19032e-10
4.2098e-10
4.27736e-10
4.41148e-10
2.57576e-07
7.52404e-10
8.08896e-09
8.71619e-08
2.98148e-07
3.14617e-06
7.03552e-07
4.61539e-06
1.28201e-06
1.46898e-06
1.36591e-06
1.13771e-06
4.74173e-07
2.2942e-07
4.91093e-07
8.64176e-07
8.37816e-07
4.19539e-07
1.53204e-07
9.53973e-08
7.43286e-08
5.56085e-08
3.90476e-10
4.39588e-08
4.65868e-08
2.50567e-11
5.6119e-08
5.3032e-08
3.3759e-12
6.2637e-08
4.74643e-12
6.625e-08
7.09435e-08
6.82752e-08
5.91499e-08
5.66742e-08
5.96145e-08
5.6948e-08
4.26481e-08
3.47683e-08
2.10551e-11
3.9103e-11
1.71166e-08
1.46913e-08
9.18833e-12
7.1264e-09
5.11202e-09
1.4315e-11
2.58136e-09
3.04421e-09
1.12615e-11
2.03507e-09
1.76654e-09
1.62585e-09
2.38095e-10
2.56552e-10
8.69283e-10
7.1536e-10
9.58289e-13
1.30816e-12
1.56787e-11
1.31678e-08
2.14397e-08
1.03984e-10
5.02456e-08
8.62589e-11
6.53725e-08
4.54229e-10
4.28288e-10
3.98349e-10
3.67083e-10
3.48427e-10
3.455e-10
3.53899e-10
3.72109e-10
3.9753e-10
4.32111e-10
4.7665e-10
3.37274e-08
5.0803e-10
4.90688e-10
4.04178e-08
4.01618e-10
3.66561e-10
3.30088e-10
3.04567e-10
2.93881e-10
3.10439e-10
3.50396e-10
3.92266e-10
5.40711e-07
4.2013e-10
4.2195e-10
4.21758e-10
4.10921e-10
4.15017e-10
4.22195e-10
4.23908e-10
4.32692e-10
4.45397e-10
1.38248e-09
1.17057e-06
1.09652e-07
3.88778e-06
5.2322e-06
1.52429e-06
1.66539e-06
6.18554e-06
6.48717e-06
3.67747e-06
1.00471e-06
3.67181e-06
4.46478e-07
2.46448e-07
2.89701e-06
7.55568e-07
6.14371e-07
2.72345e-06
4.90496e-07
9.99621e-08
5.93372e-08
1.10345e-09
4.72171e-08
4.1639e-08
4.18037e-08
4.27732e-08
4.41076e-08
4.45473e-08
4.89846e-08
5.15876e-08
5.32749e-08
6.16093e-08
6.75646e-08
3.35191e-12
6.18548e-08
5.90116e-08
5.73354e-08
5.50228e-08
6.12538e-12
3.26619e-08
2.76095e-08
2.1006e-08
1.67369e-08
1.38676e-08
6.07163e-12
5.25722e-09
3.16058e-09
1.90288e-09
1.30263e-09
9.46154e-10
5.66493e-10
3.98539e-10
6.30869e-10
3.09946e-10
4.37579e-10
7.05441e-10
5.52096e-10
1.57425e-09
1.48145e-12
1.51469e-11
7.03858e-12
8.07878e-12
3.59178e-08
9.84878e-11
8.9603e-11
4.78394e-10
4.50852e-10
4.06776e-10
3.91021e-10
3.65976e-10
3.46332e-10
3.34858e-10
3.33633e-10
3.40873e-10
3.55575e-10
3.80104e-10
4.08834e-10
4.50595e-10
4.95145e-10
4.79536e-10
4.68321e-10
4.39949e-10
3.87759e-10
7.70803e-08
3.19358e-10
1.27393e-07
1.85823e-07
3.13691e-10
3.55128e-10
3.97788e-10
4.18679e-10
4.26618e-10
4.23027e-10
4.24513e-10
4.12873e-10
4.18267e-10
4.24613e-10
4.27255e-10
4.37735e-10
4.50328e-10
3.20856e-06
1.0098e-06
8.19285e-07
8.30443e-06
6.13149e-08
6.40408e-07
6.43623e-06
8.33853e-07
3.47749e-06
5.45354e-07
3.09829e-06
3.26818e-06
4.31293e-07
4.67145e-07
1.60719e-06
6.09015e-07
4.02226e-07
1.12164e-06
1.0876e-07
3.74873e-08
5.24643e-08
4.27804e-08
3.28267e-10
3.46305e-08
3.67504e-08
3.6091e-08
1.73265e-11
3.69861e-08
3.67958e-08
4.15221e-08
4.59714e-08
4.54973e-08
6.6896e-12
5.28135e-08
3.9631e-12
5.56274e-08
5.44247e-08
1.80493e-12
3.81283e-12
2.96241e-08
2.49565e-08
2.0428e-08
1.57289e-08
1.15359e-08
6.76767e-09
3.29478e-09
1.69819e-09
8.97474e-10
4.32015e-10
2.29272e-10
3.94432e-11
7.29978e-11
3.64768e-11
1.89557e-11
3.38522e-12
1.3225e-09
1.80332e-12
4.24397e-11
1.6453e-11
1.73379e-08
1.91455e-10
1.12146e-10
1.02901e-10
9.36562e-11
5.02405e-10
4.31643e-10
4.01549e-10
3.71349e-10
1.19012e-07
3.44638e-10
3.2615e-10
3.17564e-10
3.17968e-10
3.29888e-10
3.42788e-10
3.62941e-10
3.90588e-10
4.21979e-10
5.20712e-08
4.55683e-10
4.45639e-10
4.1552e-10
3.7405e-10
3.44481e-10
3.12035e-10
3.01842e-10
3.0187e-10
3.23802e-10
3.58496e-10
4.02534e-10
6.25658e-07
4.31911e-10
4.27019e-10
4.27615e-10
4.1856e-10
4.22533e-10
4.2746e-10
4.31123e-10
4.42988e-10
4.55545e-10
6.22194e-07
6.67898e-06
2.2826e-06
2.8827e-06
2.93843e-08
2.39988e-06
3.43896e-07
1.29293e-06
1.65092e-06
2.79931e-07
2.86632e-07
1.2333e-06
3.05493e-07
3.08594e-07
4.01257e-07
3.03962e-06
2.637e-07
1.4816e-07
8.83798e-08
6.3021e-08
2.10204e-09
7.6863e-10
3.08195e-08
1.91653e-10
5.51119e-11
2.63148e-11
3.77518e-11
2.74296e-08
2.69349e-08
2.99772e-08
1.65422e-11
1.12197e-11
3.3117e-08
3.1833e-08
3.45122e-08
2.96133e-12
2.74698e-12
4.40385e-08
3.51901e-08
4.88038e-12
2.16704e-08
1.76193e-08
2.85944e-12
7.7925e-09
2.36922e-11
1.68829e-09
1.51086e-10
2.50636e-10
6.21789e-11
1.33562e-09
2.7185e-12
1.3942e-11
2.12772e-11
2.87866e-11
3.11035e-11
3.49306e-11
2.30557e-11
1.42625e-08
1.90492e-08
1.78603e-10
5.45352e-08
8.02314e-08
9.56561e-11
5.26205e-10
4.39013e-10
3.88221e-10
3.61074e-10
3.43092e-10
3.30152e-10
3.18865e-10
3.09869e-10
3.06457e-10
3.06357e-10
3.1281e-10
1.06842e-07
3.45653e-10
3.69969e-10
8.58568e-08
4.32454e-10
6.80136e-08
4.16636e-10
3.95e-10
3.58113e-10
3.34243e-10
3.05838e-10
1.68304e-07
3.07519e-10
3.37634e-10
3.68453e-10
5.53875e-07
4.28372e-10
4.37568e-10
4.33881e-10
4.32303e-10
4.26054e-10
4.29633e-10
4.31463e-10
4.3521e-10
4.49902e-10
4.624e-10
2.22075e-09
8.6097e-07
1.26342e-06
6.1061e-07
2.87197e-07
2.38605e-07
1.16603e-07
9.08269e-08
1.15478e-07
1.28779e-07
3.02659e-07
3.80509e-07
3.16463e-07
2.39353e-07
9.27885e-07
2.45608e-07
1.57517e-07
3.65912e-07
9.31468e-08
5.0259e-08
3.56681e-08
2.98009e-08
2.3937e-08
2.25359e-08
6.59475e-11
7.74269e-11
9.44008e-11
2.01799e-08
1.33752e-10
1.90345e-08
1.88958e-08
1.90566e-08
1.87252e-08
1.91456e-08
2.09943e-08
2.337e-08
2.29939e-08
2.26289e-08
4.74514e-12
2.06204e-08
1.98637e-12
1.47698e-12
3.90763e-12
4.2724e-09
1.63355e-09
5.91094e-10
6.9956e-11
5.00245e-14
4.77302e-11
1.11245e-10
1.05267e-11
3.38482e-09
3.75767e-09
3.92439e-09
8.06731e-12
6.92255e-12
1.70127e-08
3.05695e-08
1.12098e-10
7.33348e-08
1.06618e-07
1.59139e-07
4.8761e-10
4.45314e-10
3.91725e-10
3.5512e-10
3.29665e-10
3.19518e-10
3.11996e-10
3.08213e-10
3.03468e-10
3.01e-10
3.01407e-10
3.04504e-10
3.10984e-10
3.30768e-10
3.48081e-10
3.6724e-10
3.94885e-10
3.93822e-10
3.9173e-10
3.72766e-10
3.44349e-10
3.18684e-10
3.03162e-10
2.97903e-10
3.14145e-10
3.50894e-10
3.85415e-10
4.2068e-10
4.31445e-10
4.45459e-10
4.42194e-10
4.3852e-10
4.34294e-10
4.37942e-10
4.37052e-10
4.43009e-10
4.57714e-10
4.70944e-10
2.33433e-09
1.53798e-08
1.91918e-07
3.32683e-07
2.08725e-07
7.47346e-08
2.81793e-08
3.06865e-08
4.72971e-08
6.1202e-08
2.44496e-08
1.01024e-07
1.32405e-07
2.37379e-07
5.18677e-07
4.4255e-07
1.00241e-07
6.81169e-08
1.4713e-08
3.4756e-08
1.50252e-09
2.28991e-08
2.0138e-08
1.68666e-08
2.17042e-10
1.53475e-08
1.38783e-08
1.32335e-08
4.7814e-10
1.1091e-08
2.03782e-10
1.76571e-10
1.06709e-08
1.15519e-08
8.12283e-11
1.18837e-08
1.25707e-08
1.37152e-08
1.4315e-08
4.40877e-12
1.08209e-08
7.59885e-09
4.15214e-09
5.31803e-11
5.44646e-10
4.63154e-11
9.84935e-12
7.33673e-11
8.79396e-11
9.72249e-11
1.02074e-10
7.72667e-09
1.10259e-10
1.78667e-08
1.11455e-10
3.32667e-08
4.00244e-08
6.52698e-08
1.00839e-10
9.68258e-11
9.3415e-11
4.49862e-10
4.17254e-10
3.94334e-10
3.09394e-07
3.3496e-10
3.2374e-10
3.13756e-10
2.53578e-07
2.26863e-07
3.0137e-10
3.00453e-10
2.97525e-10
3.00034e-10
3.04576e-10
3.12038e-10
3.31712e-10
3.45344e-10
3.62535e-10
3.66065e-10
3.64787e-10
3.5297e-10
1.14311e-07
3.08915e-10
3.00748e-10
3.06893e-10
3.22424e-10
3.62748e-10
4.0228e-10
6.87166e-07
4.43596e-10
4.48488e-10
4.51854e-10
4.4182e-10
4.4283e-10
4.45317e-10
4.45854e-10
4.52059e-10
4.66893e-10
4.79745e-10
2.06244e-09
5.37302e-09
3.13135e-08
6.89469e-08
4.30947e-08
1.07042e-08
3.66687e-09
1.23442e-09
5.9099e-09
1.86875e-08
3.78061e-08
6.06912e-08
8.97974e-08
1.15008e-07
1.65063e-07
9.60006e-08
7.03573e-08
4.55526e-08
4.17293e-08
2.87517e-08
2.14159e-08
7.70065e-10
8.89474e-10
5.38128e-10
4.51907e-10
1.00636e-08
8.51291e-09
8.12201e-09
6.63057e-09
5.95707e-09
1.06022e-09
4.75272e-09
4.9275e-09
3.64506e-10
5.71776e-09
6.54134e-09
1.00521e-10
7.87891e-09
7.8585e-09
7.32014e-09
5.58733e-09
3.68908e-11
1.72847e-09
6.18242e-10
1.14827e-09
5.81203e-09
1.29949e-08
8.50069e-11
8.6072e-11
8.83005e-11
9.27419e-11
3.22743e-08
3.94473e-08
1.00586e-10
1.00431e-10
1.01196e-10
1.00882e-10
9.65587e-11
9.32844e-11
4.43111e-10
4.1528e-10
3.84624e-07
3.79038e-10
3.92353e-07
3.44481e-10
3.4017e-10
3.39053e-10
3.31082e-10
3.21357e-10
3.15525e-10
2.71608e-07
3.10798e-10
3.07515e-10
3.01975e-10
3.00357e-10
3.06485e-10
3.12412e-10
3.24378e-10
3.41441e-10
1.20643e-07
3.45882e-10
3.39223e-10
3.16094e-10
3.05831e-10
3.0226e-10
3.15623e-10
3.42616e-10
3.7602e-10
4.14738e-10
4.43339e-10
4.55575e-10
4.51584e-10
4.58994e-10
4.48915e-10
4.52807e-10
4.54031e-10
4.55951e-10
4.618e-10
4.77173e-10
4.88686e-10
1.91398e-09
3.3983e-09
1.46925e-08
3.13256e-08
2.90837e-08
2.4127e-08
1.90801e-08
1.00442e-08
2.67711e-09
4.08224e-10
1.00327e-08
1.31351e-09
5.88635e-08
2.09522e-08
8.34706e-08
7.09046e-08
5.58929e-08
3.88346e-08
2.95536e-08
2.22848e-08
1.58555e-08
2.45734e-09
1.00763e-08
8.73528e-09
6.6607e-09
5.72466e-09
4.56367e-09
1.63052e-09
3.72742e-09
2.54657e-09
2.63374e-09
2.48304e-09
1.97461e-09
2.28586e-09
8.79028e-10
3.29704e-09
3.77223e-09
4.22842e-09
4.52398e-09
3.86941e-09
2.52217e-09
1.34998e-09
5.28227e-10
2.49754e-09
1.15316e-11
7.58406e-11
4.79803e-10
4.33313e-10
4.47642e-10
4.72203e-10
7.65144e-08
9.11247e-08
1.01655e-07
9.17087e-11
1.33239e-07
9.28124e-11
5.05979e-10
2.46851e-07
4.16055e-10
3.94965e-10
3.80021e-10
3.60859e-10
3.58402e-10
3.54269e-10
3.59416e-10
3.62645e-10
3.6813e-10
3.59084e-10
3.4516e-10
3.33027e-10
3.25283e-10
3.19564e-10
3.16365e-10
3.1172e-10
3.05465e-10
3.02551e-10
1.87334e-07
3.11977e-10
3.19103e-10
3.25333e-10
3.25712e-10
3.20917e-10
1.728e-07
3.02784e-10
3.11526e-10
3.23529e-10
3.59931e-10
3.97058e-10
4.23155e-10
4.50885e-10
4.6644e-10
4.64006e-10
4.67363e-10
4.62169e-10
4.64044e-10
4.64221e-10
4.69346e-10
4.74987e-10
4.88252e-10
4.99072e-10
1.8819e-09
2.3818e-09
6.47954e-09
1.70612e-08
2.20105e-08
2.02635e-08
2.21716e-08
2.34236e-08
1.20458e-08
2.2911e-09
2.41853e-11
8.73144e-09
2.69562e-08
4.56776e-08
5.16563e-08
4.56691e-08
3.73212e-08
2.96828e-09
2.14551e-08
1.56261e-08
1.08899e-08
7.87135e-09
6.06315e-09
4.7338e-09
3.68441e-09
1.62814e-09
2.37915e-09
1.91651e-09
1.47403e-09
1.19459e-09
9.08322e-10
7.81109e-10
8.86331e-10
1.11658e-09
1.48919e-09
1.47422e-09
1.89895e-09
8.4465e-12
2.16986e-09
1.77226e-09
9.61837e-10
3.64591e-10
3.90354e-09
3.03051e-12
7.05122e-11
4.18594e-10
9.17987e-08
3.54676e-10
3.6357e-10
3.86484e-10
4.29869e-10
4.50827e-10
4.54215e-10
4.57224e-10
4.42173e-10
4.2355e-10
4.13356e-10
3.96163e-10
3.8116e-10
3.6256e-10
3.6005e-10
3.62641e-10
3.75941e-10
3.81946e-10
6.82181e-07
4.0604e-10
3.97565e-10
3.85518e-10
3.73149e-10
3.62262e-10
3.53335e-10
3.46896e-10
3.37962e-10
3.21413e-10
3.15083e-10
3.07238e-10
3.03676e-10
3.07232e-10
3.11268e-10
3.1328e-10
3.14248e-10
3.13177e-10
3.06349e-10
3.09026e-10
3.2052e-10
3.47606e-10
3.73587e-10
6.20179e-07
4.42539e-10
4.62059e-10
4.72663e-10
4.77283e-10
4.74192e-10
4.73371e-10
4.73789e-10
4.74696e-10
4.83466e-10
4.89028e-10
5.00031e-10
5.10607e-10
1.91714e-09
2.24368e-09
3.22784e-09
6.97652e-09
9.4677e-09
9.25734e-09
1.29788e-08
2.23596e-08
2.33197e-08
9.13327e-09
9.17729e-10
1.65873e-10
8.46079e-09
4.15192e-10
3.22181e-08
7.41691e-10
8.99379e-10
1.99514e-08
2.54526e-09
9.34545e-09
5.40415e-09
4.64697e-09
3.17307e-09
2.00861e-09
5.81618e-09
4.21605e-09
7.28293e-10
4.37253e-10
3.85845e-10
2.67347e-10
1.76529e-10
1.24991e-10
2.18162e-10
2.32253e-10
4.1757e-10
6.56222e-10
4.88503e-12
8.61964e-10
8.36763e-10
5.13913e-10
2.2608e-10
5.46423e-09
6.90804e-12
2.88273e-10
3.66908e-10
3.40067e-10
3.15201e-10
3.11438e-10
3.19052e-10
3.35223e-10
2.64571e-07
3.72503e-10
3.77765e-10
3.38785e-07
3.72286e-07
3.77367e-10
3.66459e-10
3.62084e-10
5.75588e-07
3.66321e-10
3.79111e-10
3.95407e-10
4.2056e-10
4.33445e-10
4.40297e-10
4.45929e-10
4.35457e-10
4.21406e-10
4.04003e-10
3.84827e-10
5.01095e-07
3.63121e-10
3.57417e-10
3.45406e-10
3.28098e-10
3.17654e-10
3.12651e-10
3.08643e-10
3.08562e-10
3.10098e-10
2.24723e-07
2.23411e-07
3.0941e-10
3.20918e-10
3.37085e-10
3.69741e-10
3.99011e-10
4.27284e-10
4.59818e-10
4.77513e-10
4.80857e-10
4.88472e-10
4.82676e-10
4.8659e-10
4.84928e-10
4.89962e-10
4.9819e-10
5.05517e-10
5.14351e-10
5.26602e-10
1.98851e-09
2.33128e-09
2.68221e-09
3.56825e-09
4.17641e-09
4.385e-09
7.37189e-09
1.66754e-08
2.66302e-08
1.95487e-08
4.76332e-09
6.0292e-10
7.97768e-10
8.59158e-09
1.56103e-08
1.71125e-08
1.36173e-08
1.07128e-08
6.73983e-09
4.91787e-09
3.24353e-09
1.89191e-09
1.55549e-08
7.76278e-10
4.62673e-10
5.46355e-09
1.51004e-10
6.22048e-10
4.48286e-11
4.29887e-11
8.64602e-11
1.47387e-10
1.53864e-10
1.33139e-10
9.40223e-11
7.83796e-11
1.15532e-10
1.99575e-10
1.6719e-10
9.32095e-11
7.12966e-12
1.36757e-10
2.84276e-10
3.41118e-10
3.07785e-10
2.58497e-07
3.07885e-10
3.15264e-10
3.22604e-10
3.26086e-10
4.04501e-07
3.45446e-10
3.49386e-10
3.54188e-10
3.55943e-10
3.56498e-10
3.63907e-10
3.75244e-10
3.86688e-10
8.58743e-07
4.22787e-10
4.43542e-10
4.68643e-10
4.80669e-10
4.78832e-10
4.6929e-10
4.56487e-10
4.38449e-10
4.22879e-10
4.10327e-10
4.0032e-10
3.89924e-10
3.75837e-10
3.61026e-10
3.51247e-10
3.32559e-10
3.24666e-10
3.2183e-10
3.18262e-10
3.15854e-10
3.12787e-10
2.89953e-07
3.23973e-10
3.35176e-10
3.64216e-10
3.88528e-10
4.27196e-10
4.48456e-10
4.70208e-10
4.92009e-10
4.96008e-10
4.99721e-10
4.9843e-10
4.99245e-10
4.96824e-10
5.05875e-10
5.14225e-10
5.22441e-10
5.30043e-10
5.44975e-10
2.08967e-09
2.49356e-09
2.64972e-09
2.69265e-09
2.69036e-09
2.81109e-09
5.55435e-09
1.44702e-08
2.63754e-08
2.76597e-08
1.25652e-08
2.1323e-09
1.41366e-10
1.20748e-09
4.35695e-09
6.41803e-09
1.72722e-08
2.84732e-08
3.21644e-09
4.30068e-08
9.28133e-10
4.40067e-10
2.12876e-10
1.18312e-10
7.65345e-11
2.13901e-12
9.83365e-10
9.03461e-11
7.84188e-10
1.17077e-10
9.82656e-11
1.41371e-10
7.69064e-10
1.95877e-10
2.01407e-10
1.34076e-10
6.57153e-11
8.62774e-10
8.05649e-11
9.15052e-09
1.42065e-10
2.25279e-10
3.17061e-10
2.36714e-07
3.03407e-10
3.19291e-10
5.11985e-07
3.47116e-10
5.63097e-07
3.58956e-10
6.15432e-07
3.69898e-10
3.71672e-10
3.74155e-10
7.34526e-07
3.83679e-10
4.01561e-10
4.22198e-10
4.38959e-10
4.523e-10
4.69113e-10
4.85618e-10
5.02771e-10
1.21218e-06
5.08928e-10
4.9311e-10
4.75498e-10
4.61794e-10
4.45296e-10
4.26871e-10
4.11712e-10
4.07631e-10
3.97515e-10
3.84023e-10
3.65751e-10
3.59147e-10
3.48155e-10
3.34282e-10
3.31941e-10
3.30913e-10
3.28948e-10
3.29595e-10
4.22697e-07
3.66573e-10
3.86657e-10
4.22378e-10
4.46326e-10
4.7499e-10
4.85901e-10
4.9922e-10
5.11481e-10
5.07434e-10
5.12717e-10
5.10858e-10
5.13159e-10
5.22188e-10
5.31656e-10
5.38144e-10
5.50015e-10
5.63648e-10
2.22721e-09
2.58617e-09
2.49758e-09
2.3598e-09
2.45351e-09
3.13211e-09
8.64514e-09
1.98624e-08
2.99477e-08
3.27286e-08
2.145e-08
6.81945e-09
1.08056e-09
3.69722e-11
6.43301e-10
5.60809e-08
1.99923e-09
1.34057e-09
6.14951e-08
2.65574e-10
8.16654e-11
3.42497e-11
1.59206e-11
1.93816e-08
3.02762e-12
1.37591e-11
3.78597e-11
1.25646e-10
1.80736e-09
8.9566e-11
5.59462e-11
6.36717e-11
8.9277e-11
1.32071e-10
2.23389e-10
1.86813e-10
2.54679e-10
2.09839e-10
2.07612e-10
5.30498e-08
2.05226e-10
2.05814e-07
2.80885e-10
4.83711e-07
6.23874e-07
3.43668e-10
3.59932e-10
3.73092e-10
3.93482e-10
7.97372e-07
4.15724e-10
4.17511e-10
4.18125e-10
4.22732e-10
4.2694e-10
4.34665e-10
4.54221e-10
4.74376e-10
4.8581e-10
4.91103e-10
4.99206e-10
5.12966e-10
5.25633e-10
5.28733e-10
5.2329e-10
5.06712e-10