/*--------------------------------*- C++ -*----------------------------------*\
  =========                 |
  \\      /  F ield         | OpenFOAM: The Open Source CFD Toolbox
   \\    /   O peration     | Website:  https://openfoam.org
    \\  /    A nd           | Version:  6
     \\/     M anipulation  |
\*---------------------------------------------------------------------------*/
FoamFile
{
    version     2.0;
    format      ascii;
    class       volScalarField;
    location    "0.1";
    object      CH2OH;
}
// * * * * * * * * * * * * * * * * * * * * * * * * * * * * * * * * * * * * * //

dimensions      [0 0 0 0 0 0 0];

internalField   nonuniform List<scalar> 
8000
(
6.21434e-12
3.06829e-07
1.44164e-05
0.000117128
0.000288937
0.000130645
3.5873e-05
6.76965e-06
6.54655e-07
2.05835e-08
3.03257e-10
7.23426e-12
1.70483e-11
3.9517e-08
1.08883e-08
2.21939e-09
2.16129e-07
4.13541e-05
2.38249e-06
3.04523e-07
3.60483e-07
1.30236e-06
1.19698e-05
0.000114621
0.000484727
0.000768253
0.000849819
0.000821087
0.000754431
0.000103071
1.45021e-05
0.000350938
0.000147583
6.85106e-05
3.9929e-05
2.90485e-05
2.66158e-05
3.17189e-05
5.55498e-05
9.88383e-05
7.25685e-05
6.3316e-05
7.2884e-05
0.000104802
0.000172889
0.000310869
0.000545547
0.000780606
0.00108647
5.60434e-05
1.5092e-05
0.00040335
0.000538428
0.000530206
0.000513276
0.000490518
0.000469831
0.000456416
0.000448564
0.000446958
0.000855395
0.000820607
0.00133177
0.000589248
0.000959294
0.00128241
0.000855208
0.000916451
0.000814671
0.000758231
0.000993276
0.000615548
0.000624908
0.000288513
0.00029858
0.000666974
0.000664929
0.000699251
0.000762021
0.000788331
0.00072357
0.000711072
0.000638095
0.000271207
0.000209459
0.000155188
0.000126615
0.000100341
0.000241918
6.85991e-05
5.38261e-05
3.93285e-05
2.86639e-05
2.25053e-05
1.41961e-05
1.06349e-05
8.80394e-06
7.59695e-06
7.46537e-06
4.82115e-06
2.21027e-12
3.32152e-07
1.68924e-05
0.000134695
0.000356655
0.000133329
3.36217e-05
6.34951e-06
5.42158e-07
1.4036e-08
1.55809e-10
8.92009e-12
5.60993e-11
1.83544e-06
4.79052e-07
2.02294e-08
3.94663e-08
1.32559e-06
1.38433e-06
1.74491e-06
8.54766e-07
1.96524e-06
1.63149e-05
0.000130763
0.0005148
0.000773758
0.000866675
0.000826792
0.000745617
0.000772875
0.000520577
0.000298932
0.000140659
7.55902e-05
5.29101e-05
4.27983e-05
3.90608e-05
4.37366e-05
7.0632e-05
3.28327e-05
9.89404e-05
7.66035e-05
8.47464e-05
0.000118767
0.000190571
0.000332924
0.000566414
0.000790466
0.0010833
0.000985603
0.000555671
0.000545005
0.000537766
0.00052558
0.000509515
0.000488445
0.000469381
0.00045678
0.0004499
0.000447875
0.00084861
0.000819293
0.00134004
0.000541842
0.00115089
0.0012705
0.0008467
0.000910252
0.000810235
0.000751097
0.000713979
0.000610285
0.000623716
0.000285871
0.000296385
0.000665684
0.000661473
0.000696641
0.000758016
0.000789385
0.000721109
0.000710511
0.000635682
0.000269781
0.00020969
0.000154753
0.000126311
0.00010014
7.9809e-05
6.85185e-05
5.37446e-05
3.92681e-05
2.86256e-05
2.25068e-05
1.41654e-05
1.06151e-05
8.79125e-06
7.58448e-06
7.4748e-06
4.81233e-06
1.20549e-12
4.641e-07
0.00018176
0.000213199
0.000159357
7.38849e-05
2.11096e-05
7.55747e-05
1.09027e-05
6.25038e-09
1.62889e-08
8.011e-12
1.26384e-10
1.71139e-06
7.10654e-06
7.11629e-08
7.47838e-09
3.09892e-08
1.93547e-06
1.99192e-05
2.40907e-06
3.7718e-06
2.72694e-05
0.000167401
0.000573134
0.000860519
0.000890295
0.000839461
0.000705758
0.000628301
0.000460541
0.000268346
0.000143248
9.38614e-05
8.58808e-05
8.43123e-05
7.28091e-05
7.59964e-05
8.71839e-05
0.000106594
9.52506e-05
9.56309e-05
0.000109252
0.000148806
0.000227544
0.000379442
0.000613359
0.000792384
0.0011037
0.00101291
0.00104934
0.000540961
0.000523376
0.000514177
0.000502247
0.000484795
0.000468185
0.000457738
0.000452792
0.000604412
0.000835153
0.000818764
0.00135922
0.000651365
0.00113359
0.0012451
0.000958984
0.000896133
0.000801205
0.000736708
0.00069039
0.000600626
0.000494327
0.000279974
0.00029168
0.000682632
0.000653897
0.000691
0.000749528
0.00108141
0.000715587
0.000709358
0.000630171
0.00026692
0.00033722
0.000153789
0.000125701
9.96964e-05
8.00598e-05
6.83341e-05
5.35674e-05
3.91354e-05
7.53905e-05
5.97276e-05
1.40976e-05
1.05716e-05
8.76327e-06
7.55702e-06
1.85336e-05
4.79312e-06
2.50527e-12
9.02177e-07
7.56515e-05
0.000111466
7.52119e-05
3.54554e-05
9.82866e-06
1.46927e-06
6.13704e-08
6.43923e-10
6.9582e-12
1.39061e-12
2.28132e-11
2.86551e-06
5.03747e-05
1.38157e-07
3.36251e-09
6.81929e-09
5.70641e-07
1.83826e-06
1.38739e-06
6.3193e-06
4.66511e-05
0.00023712
0.000636837
1.19801e-05
0.000986886
0.000853407
0.000732187
0.000594501
0.000438982
0.000267621
0.000162867
0.000122966
0.00013594
3.697e-05
0.000134249
5.46076e-05
0.000134135
0.000136542
0.000129858
0.000138521
0.00015266
0.0001957
0.000298289
0.000488281
0.000658153
0.000814767
0.0011412
0.00123299
0.00106501
0.000528416
5.61163e-06
0.000501597
0.000495238
0.000481182
0.000466787
0.000458752
0.000455432
0.000869207
0.000818948
0.00124016
0.00139065
0.000768184
0.00112353
0.00120731
0.00092989
0.000873181
0.000789433
0.000717704
0.000732003
0.000293218
0.000295061
0.000270759
0.000284739
0.000633179
0.000642443
0.00068266
0.000737253
0.000755683
0.000706899
0.000707833
0.000621324
0.000263235
0.000201844
0.000152277
0.000124796
9.90289e-05
8.00225e-05
6.80495e-05
5.32999e-05
3.89369e-05
2.83569e-05
2.1644e-05
1.39903e-05
1.05061e-05
8.72169e-06
7.51513e-06
7.03637e-06
4.76374e-06
1.53833e-12
7.92686e-07
1.71186e-05
0.000156155
4.48998e-05
1.65192e-05
3.18171e-06
2.11567e-07
3.83498e-09
2.46024e-11
2.14558e-10
1.17557e-11
1.58422e-11
1.44903e-07
1.55813e-06
1.58249e-08
1.37916e-09
3.68262e-09
1.20399e-07
4.14131e-07
1.41191e-06
1.29867e-05
9.01017e-05
0.0003333
0.000662977
0.000895888
0.000903457
0.000802101
0.00077511
0.000610151
0.000453158
0.000297081
0.000202661
0.000161319
0.000153116
0.000149662
0.000138605
0.000149446
0.000178009
2.18068e-05
0.000196982
0.000212706
0.000220807
0.000272753
0.000368608
0.000584192
0.000804407
0.000945778
0.00117989
0.00105575
0.00106843
0.000527904
0.000373735
0.000498991
0.000491511
0.000478367
0.000464426
0.000459076
0.000608031
0.000840012
0.000805326
0.00126016
0.00143713
0.00101046
0.00119422
0.00088614
0.000892291
0.00083994
0.0010684
0.000695195
0.000646899
0.000279061
0.00027223
0.000259191
0.00027592
0.000609102
0.000628266
0.000671909
0.000722352
0.000730357
0.000695993
0.000813588
0.000608862
0.000383784
0.000196507
0.000150326
0.000123603
9.8134e-05
7.99774e-05
6.76625e-05
5.29445e-05
3.86751e-05
2.81122e-05
2.09344e-05
1.3853e-05
1.04204e-05
8.66725e-06
7.45977e-06
6.68836e-06
4.72772e-06
3.33881e-13
1.75138e-06
0.000325584
6.04086e-05
1.76552e-05
5.45384e-06
5.06316e-07
1.306e-06
1.23094e-10
5.54183e-13
6.55206e-14
5.91251e-14
5.35975e-13
9.41526e-09
2.5278e-08
8.60775e-09
1.65399e-08
1.93949e-08
1.53937e-07
3.25957e-07
3.19071e-06
2.89313e-05
1.83443e-05
0.000121089
0.000765682
0.000898531
0.0009106
0.000814335
0.000782187
0.000651847
0.000504462
0.000356748
0.000279726
0.000219855
0.000197582
0.000182158
0.00017628
0.000189475
0.000222618
0.000275396
0.000276369
0.000335448
0.0001053
0.000348284
0.000485669
0.000664213
0.000817352
0.000983302
0.00120632
4.23508e-06
0.0010617
0.00052728
2.88979e-06
0.000494144
0.000488665
0.000476329
0.000460636
0.000453293
0.0008577
0.000814087
0.000803157
0.00129691
0.00150049
0.000971003
0.00114018
0.000839799
0.000848057
0.000797326
0.000736762
0.000669966
0.000620743
0.000262431
0.000251921
0.000247097
0.000265585
0.000587521
0.000612505
0.000658985
0.000705203
0.000710708
0.000683266
0.000761233
0.000297343
0.000245403
0.000192007
0.000147972
0.000122147
9.71437e-05
7.9706e-05
6.71716e-05
5.25029e-05
3.83521e-05
2.78041e-05
5.37562e-05
1.36898e-05
1.03358e-05
8.59845e-06
7.39188e-06
6.42228e-06
4.68631e-06
9.59964e-15
1.58892e-07
3.12958e-05
9.90036e-05
3.76505e-06
9.0278e-07
2.62734e-06
1.51644e-07
2.73621e-09
2.56986e-13
4.59178e-14
3.10749e-13
5.30675e-10
6.51578e-10
1.26703e-09
9.06935e-10
3.22179e-09
1.97369e-08
1.01957e-07
5.44709e-07
1.33326e-05
5.88535e-05
0.00023943
0.000541782
0.000807531
1.7982e-05
1.92721e-05
0.000836624
3.55226e-05
0.000737312
0.000591335
0.000473491
0.000370487
0.000320208
0.000292035
0.000270225
0.000243426
0.000269083
0.000302134
0.000367537
0.000119661
0.000359139
0.000357185
0.000433478
0.000560984
0.000812407
1.31958e-05
0.00110311
0.0012144
0.00125787
0.00104744
0.000891756
3.09543e-06
0.000491388
0.000485832
0.000472077
0.000454326
4.11539e-06
0.000825477
0.000794028
0.000821374
0.00135117
0.000549131
0.000932548
0.00192212
0.000906912
0.000800112
0.000748941
0.000701501
0.000644026
0.000597743
0.00024535
0.000234913
0.000234411
0.000254087
0.000279422
0.000595352
0.000643912
0.000686551
0.000802057
0.000669033
0.00066019
0.000281832
0.000233454
0.000187998
0.000145236
0.00012042
0.000274179
7.98116e-05
6.71342e-05
5.19784e-05
3.79715e-05
2.74554e-05
1.97586e-05
1.35028e-05
1.02355e-05
8.51663e-06
7.31239e-06
6.20652e-06
4.64008e-06
1.0416e-12
1.57786e-07
2.91572e-05
1.68859e-06
3.37452e-07
2.70216e-08
1.83569e-07
8.27827e-11
8.6371e-13
9.68796e-14
1.35559e-11
4.83738e-10
8.652e-10
2.16909e-08
8.93663e-10
1.57193e-09
1.23071e-08
6.7561e-08
2.61531e-07
1.44223e-06
1.04482e-05
1.82842e-05
0.000339273
0.000120757
0.000807404
0.000949576
0.000937882
0.000858462
0.000839172
0.000796565
6.00466e-05
0.000590841
0.000521809
0.000466517
0.000435709
9.88782e-05
0.000359272
0.000361332
0.00041967
0.000443905
0.000426566
0.000378894
0.00039459
0.000499172
0.000623645
0.000840528
0.000956709
0.00101564
0.00121086
0.00124167
0.00102546
0.00100288
3.52422e-06
0.00064645
0.000635462
0.000617269
0.000595987
0.000827968
0.000797374
0.00116783
0.00127617
0.000384792
0.00135881
0.00106531
0.00112652
0.000847324
0.000750344
0.000698724
0.000668333
0.000551331
0.000419473
0.000228199
0.000218149
0.000221642
0.000371435
0.000261546
0.000289924
0.000626526
0.000667461
0.000744013
0.000653449
0.000635893
0.000265159
0.000222295
0.000286157
0.000142176
0.00011844
9.58698e-05
8.00684e-05
6.703e-05
5.16271e-05
3.75338e-05
2.70716e-05
1.93277e-05
1.32967e-05
1.01212e-05
8.42244e-06
7.22055e-06
6.02267e-06
4.59024e-06
4.47034e-16
1.84536e-09
2.0245e-06
1.70698e-06
8.95508e-09
2.83438e-10
3.81018e-11
1.31609e-12
1.24813e-13
4.43816e-13
2.91497e-11
2.86968e-09
5.76505e-07
6.29548e-08
9.68672e-08
7.26315e-08
1.87539e-07
2.42699e-07
3.96811e-06
4.78797e-06
2.14585e-05
9.61338e-05
0.0002914
0.000616546
2.41585e-05
1.23016e-05
0.000961429
0.000940562
2.26213e-05
0.000823925
0.000780932
0.000720342
0.000699017
0.000650264
0.000557239
0.000544605
8.67225e-05
0.000506918
0.000543744
9.58904e-05
0.000486596
0.000468822
0.00049987
0.000576828
0.000684418
0.000867068
0.000875315
0.00101622
0.00120251
0.00122093
0.00122333
0.000968634
0.000936649
0.000911393
4.37683e-06
0.000857714
0.000822579
0.00079739
0.000777834
0.00117822
0.00027091
0.000536023
0.000888123
0.00198289
0.000804458
0.000785909
0.000699959
0.000649626
0.000675981
0.000575466
0.000251008
0.000209716
0.000202069
0.000208797
0.000226849
0.00024462
0.000273658
0.000606723
0.000665706
0.000644771
0.0005862
0.000500185
0.000249445
0.000211319
0.00028122
0.000138629
0.000116223
9.52175e-05
8.0196e-05
6.66718e-05
5.13402e-05
3.70441e-05
2.66485e-05
1.89049e-05
1.30699e-05
9.99254e-06
8.31605e-06
7.11625e-06
5.8595e-06
4.53647e-06
1.63993e-17
3.41717e-11
4.00893e-09
9.41228e-08
8.19203e-11
1.39974e-12
1.31799e-10
1.09378e-13
1.1968e-11
6.53668e-11
7.99753e-11
1.15853e-08
8.18223e-07
1.25014e-05
1.67474e-07
8.07771e-08
1.45628e-07
6.79104e-07
1.37835e-05
1.78963e-05
2.49918e-05
0.00013069
0.000307627
0.00061316
0.000853815
1.77524e-05
0.000964558
0.000949092
0.000862923
0.000837893
0.000794844
0.000781589
0.000868944
1.33312e-05
2.7186e-05
0.000682323
0.000664832
0.000669565
0.000659044
0.000597243
0.000570518
0.00055513
0.000590654
0.00066567
0.000788419
0.00086797
0.000883329
0.00101552
0.00118913
0.00119418
0.0011893
0.00117948
0.000894784
0.000870165
0.000843047
0.000818024
5.50817e-06
2.81565e-05
0.00115254
0.00121575
0.00135921
0.000686332
0.000980234
0.00108745
0.00134503
0.00105551
0.000651473
0.000601052
0.000506938
0.000258686
0.000221272
0.000191398
0.000188994
0.000195952
0.000211649
0.000228914
0.000371626
0.000448023
0.00062153
0.000616679
0.000607472
0.00029367
0.000235821
0.000200505
0.000168844
0.000140548
0.000113789
9.4258e-05
8.01831e-05
6.62433e-05
5.10364e-05
3.64579e-05
2.6186e-05
1.84971e-05
1.28648e-05
9.85351e-06
8.19832e-06
7.00136e-06
5.71162e-06
4.47723e-06
6.50182e-19
7.1515e-11
6.71441e-09
5.55578e-09
7.90375e-13
1.50387e-13
1.03555e-13
7.52014e-12
2.42969e-11
6.60698e-10
5.55031e-09
4.58045e-08
9.03715e-06
2.54419e-05
7.44995e-07
2.36667e-07
7.16266e-07
1.07127e-06
7.04284e-06
2.77096e-05
7.49319e-05
0.000175556
0.000371704
0.000632144
0.000862517
0.000949365
0.000980479
0.000964686
0.000950027
0.000867267
0.000844769
0.000901923
0.000913365
0.000892237
0.000850947
1.32323e-05
0.000821214
1.52451e-05
0.000724909
3.35184e-05
0.000715259
0.000640133
0.000668352
0.000796931
0.000837047
0.000873002
0.0008878
0.00100483
1.10726e-05
0.00116327
0.00115317
0.00114057
0.0011307
0.000827427
5.87931e-06
0.000785783
2.77183e-05
0.00115208
0.00118822
0.00127277
0.000468153
0.00162981
0.00100829
0.000773072
0.000752832
0.000655617
0.000604463
0.000555641
0.00026668
0.000354263
0.000194925
0.000177601
0.000176966
0.000184707
0.00019722
0.000214834
0.000239179
0.000277095
0.000596404
0.000456735
0.000292908
0.000268258
0.00022225
0.000191091
0.000159893
0.000136006
0.0001111
9.31389e-05
7.97041e-05
0.000171505
5.06622e-05
3.58612e-05
2.56566e-05
1.80953e-05
1.2661e-05
9.69782e-06
8.065e-06
6.88376e-06
5.55165e-06
4.4144e-06
1.32579e-14
3.17425e-12
1.3572e-10
1.88482e-10
9.36314e-13
2.60229e-11
4.68273e-12
6.68856e-10
1.95144e-09
4.53076e-09
1.76792e-08
4.77191e-08
1.96068e-06
2.14024e-05
1.89083e-06
4.06122e-07
4.0802e-07
1.341e-06
1.61971e-05
1.73398e-05
0.000110871
0.000260655
0.000138432
0.000682861
0.000862203
1.99218e-05
1.5354e-05
0.000986744
0.000983026
1.62687e-05
0.000967398
0.000960431
0.000961288
0.000942925
0.000918239
0.000980878
0.000904284
0.000973725
1.78053e-05
0.000851117
0.000777585
0.000780853
0.000803155
0.000838361
0.00084991
0.000867675
0.000980669
0.000974119
0.00107997
0.00113172
1.16348e-05
1.17716e-05
1.18598e-05
0.0011154
0.0011243
0.00113409
0.00115999
0.0011868
0.00124659
0.000410906
0.000798927
0.00212062
0.00102126
0.00078796
0.000679312
0.00059379
0.000471466
0.000374472
0.000225897
0.000198736
0.000174423
0.000164242
0.000165121
0.000173407
0.000185476
0.000200907
0.000222345
0.00025364
0.000291157
0.000280848
0.000269803
0.000246466
0.000208819
0.000181567
0.00015289
0.000131224
0.000108239
9.18721e-05
7.90871e-05
6.52899e-05
5.01057e-05
9.04734e-05
2.50487e-05
1.76978e-05
1.24392e-05
9.52255e-06
7.91686e-06
6.75654e-06
5.42115e-06
4.34684e-06
3.62228e-14
6.87972e-16
2.19932e-14
2.51932e-12
4.48695e-11
9.51558e-10
3.7975e-10
1.18164e-08
1.00429e-08
3.96139e-08
7.09521e-08
2.41779e-07
2.30385e-06
2.90188e-05
2.07546e-06
5.65241e-07
6.68292e-07
2.01429e-06
1.46305e-05
6.11795e-05
0.000148713
0.000353434
0.000113552
0.00073675
0.000871126
3.63476e-05
0.000970063
0.000973848
1.1339e-05
0.00101834
1.15349e-05
0.0010773
0.00111986
0.00111081
0.00104472
0.00103394
0.00107072
0.00106906
0.000939535
0.000923032
1.78771e-05
2.6851e-05
0.000842314
0.000964795
1.77286e-05
0.000877547
0.000967797
1.93481e-05
0.00090704
0.00109988
2.57191e-05
0.00110318
0.00111154
0.0011245
4.69651e-05
7.59182e-05
0.00120099
0.000267484
0.000339522
0.000644764
0.00086252
0.00172173
0.00139216
0.000709603
0.000783651
0.000537554
0.000389369
0.000218703
0.00019375
0.000173923
0.000158177
0.000151923
0.000154125
0.000162232
0.00017406
0.000188868
0.000207567
0.000233386
0.0003923
0.000256707
0.00024786
0.000361019
0.000196262
0.000172068
0.000146171
0.00012698
0.00010536
9.03784e-05
7.84227e-05
6.41218e-05
0.000125484
3.47908e-05
2.4414e-05
1.7304e-05
1.22004e-05
9.33781e-06
7.75471e-06
6.59954e-06
5.29338e-06
4.27551e-06
4.72106e-16
1.40091e-12
5.16253e-13
1.97943e-09
2.69651e-07
2.45156e-08
3.2492e-08
3.01642e-07
7.57967e-07
7.33997e-06
7.10484e-07
5.55753e-06
3.4209e-06
2.75769e-05
6.98006e-06
9.2881e-07
1.42361e-06
9.46967e-06
1.97409e-05
1.87175e-05
0.00021224
0.000144362
0.00070587
0.000719695
0.000856971
0.000902606
0.000916851
0.000888512
0.000993809
0.000991987
0.00101765
0.00108679
0.00114839
1.14906e-05
0.00113741
0.00112969
0.00113033
0.00113218
1.18679e-05
0.000972215
0.000962327
0.000973311
0.000984902
0.00099559
1.638e-05
0.000858042
0.000804283
0.000743093
0.000854333
0.000795447
0.000724717
0.000672799
0.000875994
5.81111e-05
7.19777e-05
0.00121707
0.00125629
0.000331139
0.000622065
0.000827968
0.000992993
0.000921828
0.00118739
0.000635054
0.000549035
0.000258512
0.000222054
0.000188859
0.000171474
0.00015514
0.000145082
0.000141908
0.000144983
0.000152598
0.00016302
0.000177514
0.000193637
0.000214972
0.000245864
0.000235979
0.000229401
0.000212117
0.000185392
0.000285591
0.000145868
0.000325495
0.000285285
8.87369e-05
7.74244e-05
6.28534e-05
4.842e-05
3.41044e-05
2.3761e-05
1.69139e-05
1.19487e-05
9.14085e-06
7.57657e-06
6.43727e-06
5.16921e-06
4.20418e-06
3.22671e-10
2.03399e-11
2.29049e-10
6.59245e-08
1.66534e-05
7.16163e-07
1.40948e-06
1.47318e-06
1.08618e-05
3.39421e-06
1.01525e-05
8.81042e-06
4.31653e-06
2.12067e-05
1.02667e-05
1.74998e-06
3.31856e-06
1.52877e-05
3.19012e-05
2.25078e-05
0.000276054
0.000490091
0.00012392
0.000720119
0.000843972
0.000935477
3.56217e-05
0.000893991
0.000911904
0.000976614
0.000994997
0.00100392
1.2877e-05
0.00109551
1.14928e-05
0.00116667
0.00117259
1.12972e-05
1.14877e-05
0.00100608
0.00099961
0.00100626
0.00101123
0.00101456
0.000991248
0.000846486
0.000761004
0.000671392
0.000560103
8.74713e-05
0.000242528
0.000512802
0.000448422
0.000390716
0.00033748
0.000234711
0.000404281
0.000573616
0.000817929
0.0017013
0.000705503
0.000713728
0.000641376
0.000566731
0.000278405
0.000220636
0.000188987
0.000165398
0.00028923
0.000140908
0.000139759
0.000137877
0.000142013
0.000143891
0.000153503
0.000166391
0.000182058
0.000198392
0.000352541
0.000217135
0.000211597
0.00019642
0.000174747
0.000153985
0.000138737
0.000119282
0.000101882
8.84066e-05
7.61301e-05
6.13126e-05
0.000117389
3.33483e-05
2.31817e-05
1.65175e-05
1.17613e-05
8.96211e-06
7.39851e-06
6.26463e-06
5.04804e-06
4.12591e-06
3.35984e-07
1.95109e-08
3.11587e-08
2.59593e-06
2.70687e-05
5.3799e-06
3.40749e-06
1.76769e-05
1.6154e-05
8.10623e-06
8.60881e-06
1.84234e-05
9.42537e-06
1.00985e-05
5.09231e-06
9.90773e-06
6.97719e-06
1.53525e-05
4.05667e-05
0.000114285
0.000116739
0.000164362
0.000556103
0.000128918
9.55893e-05
4.35652e-05
4.39884e-05
0.000912838
0.000927267
0.000900359
2.00111e-05
1.81834e-05
0.000979236
0.000982502
0.000991315
1.14761e-05
1.14497e-05
0.0011695
0.00111396
1.5768e-05
0.00103549
0.00104676
1.46143e-05
0.00101624
3.26265e-05
0.000794464
7.00031e-05
0.000538085
0.00033694
0.000143761
0.000178635
0.000309754
0.000411556
0.000417025
0.000467254
0.000538364
0.000734735
0.00134576
0.00167355
0.000673667
0.00110133
0.000914283
0.000548774
0.000293894
0.00022513
0.000184726
0.00015987
0.000144169
0.000140742
0.000131146
0.000126901
0.000127415
0.000131603
0.000139411
0.000351308
0.00015441
0.000168583
0.000286366
0.000198172
0.00032093
0.000192548
0.000181616
0.000162449
0.000144636
0.000131366
0.000308353
9.95755e-05
8.8049e-05
7.52238e-05
0.000150976
4.51638e-05
3.23405e-05
2.25433e-05
1.60434e-05
1.15389e-05
8.80814e-06
7.17139e-06
6.0478e-06
4.90307e-06
4.02556e-06
2.89384e-06
4.07746e-07
5.0689e-07
1.36484e-06
4.06121e-06
2.65683e-06
9.43627e-06
3.08759e-05
2.08324e-05
1.95725e-05
2.83312e-05
2.81894e-05
3.09401e-05
1.63156e-05
1.99023e-05
1.02513e-05
1.69764e-05
2.69487e-05
2.45014e-05
0.000143546
0.000248981
0.00034471
0.000471257
0.000633273
0.000100843
9.10955e-05
9.12384e-05
0.000775478
8.99168e-05
0.000867424
0.000906344
0.000873795
0.000886873
0.000874605
0.000862071
0.000960762
0.000977087
0.00100346
1.65839e-05
0.00104116
1.65042e-05
1.11048e-05
1.48617e-05
0.000843375
0.000792163
0.000671131
0.00017293
7.50289e-05
0.000225409
0.000489201
0.000848761
0.00132454
0.00132921
0.00131214
0.000881486
0.000888937
0.00161816
0.00134869
0.000705304
0.000969172
0.000790071
0.000519937
0.000277095
0.000226836
0.00018177
0.000154585
0.000141994
0.000131195
0.000123719
0.000118418
0.000116944
0.000118234
0.000123014
0.000129606
0.000137455
0.000142683
0.000153678
0.000164642
0.000176474
0.000176919
0.00017499
0.000165743
0.000150221
0.000140035
0.000124718
0.000108758
9.65438e-05
8.65644e-05
7.41708e-05
5.77404e-05
4.26374e-05
3.09845e-05
2.17429e-05
1.54711e-05
1.12696e-05
8.60578e-06
6.8931e-06
5.82476e-06
4.72918e-06
3.89891e-06
9.01905e-06
5.18205e-07
1.80883e-06
2.0559e-06
2.62659e-06
3.07204e-06
9.82038e-06
2.00322e-05
1.91811e-05
3.01959e-05
2.90004e-05
5.6239e-05
4.06903e-05
3.56112e-05
2.81225e-05
3.13444e-05
4.33122e-05
7.54379e-05
3.24984e-05
0.000250712
7.50132e-05
0.000326888
0.000403511
0.000588748
0.000126751
0.000700956
0.000683593
0.000687246
0.00012234
0.000733514
9.30962e-05
7.72239e-05
0.000825828
0.000859763
4.20916e-05
0.000896306
0.00089008
0.000895108
0.000913495
1.97028e-05
0.00101526
0.000994975
0.000831473
3.77544e-05
0.000660986
0.00015585
0.000107374
0.000486502
0.000685788
0.000759814
0.0007885
0.00133126
0.000812194
0.00133403
0.000766623
0.0012325
0.00120214
0.00100736
0.000579535
0.000524294
0.000474227
0.000260935
0.000216549
0.000181536
0.00036618
0.000139195
0.000126381
0.000117559
0.000306821
0.000300804
0.000108347
0.000110478
0.000114594
0.000121262
0.000128552
0.000136741
0.00014152
0.000149975
0.00015778
0.00015901
0.000158032
0.000151279
0.000348676
0.000130323
0.000118029
0.000106085
9.35379e-05
8.43785e-05
7.24909e-05
0.000136882
4.08586e-05
2.94206e-05
2.09069e-05
1.48364e-05
1.09809e-05
8.38763e-06
6.70899e-06
5.60282e-06
4.5548e-06
3.76546e-06
1.01715e-05
2.68212e-06
2.34721e-06
2.36911e-06
2.2686e-06
3.25716e-06
7.65584e-06
1.18411e-05
1.69717e-05
3.41785e-05
8.84668e-05
0.000109499
7.59777e-05
6.65176e-05
3.97527e-05
6.87661e-05
9.91345e-05
2.09951e-05
0.000168831
0.000218673
0.00027662
8.30829e-05
9.03054e-05
0.000135343
0.000141907
0.000589559
0.000573012
0.000548995
0.000516401
0.000562157
0.000134394
0.000578661
0.000627872
0.000105179
0.000690922
0.000728673
9.21816e-05
0.00088394
0.000940716
0.000928315
0.000876656
3.70789e-05
0.00077238
0.000657974
3.78246e-05
0.000552351
0.000774224
0.000621738
0.000604601
0.000611477
0.00064269
0.000969811
0.000987507
0.000656592
0.000632206
0.000612276
0.00058679
0.000529657
0.000479562
0.000279048
0.000242104
0.000334815
0.000177264
0.000370658
0.000136553
0.000125595
0.000117507
0.00011081
0.000105944
0.000103204
0.000278373
0.000105612
0.000110336
0.000114851
0.000120305
0.000128214
0.000135213
0.000143557
0.000143628
0.000323874
0.000144354
0.000139496
0.000134089
0.000123057
0.000112503
0.000102749
9.27302e-05
8.20056e-05
6.95736e-05
5.30788e-05
3.89803e-05
2.78671e-05
1.99805e-05
1.42433e-05
1.06823e-05
8.15976e-06
6.54966e-06
5.38456e-06
4.37389e-06
3.62656e-06
9.98164e-06
7.22141e-06
4.83047e-06
3.6031e-06
4.21059e-06
6.65379e-06
8.49969e-06
9.71025e-06
1.46374e-05
2.75988e-05
8.05538e-05
4.74631e-05
0.000130673
3.25471e-05
0.000116637
0.000142577
0.000178775
0.000204444
0.000211542
0.000212868
0.000242833
2.91301e-05
0.000296532
0.000370385
0.000457213
0.00048075
0.000508023
0.000113769
0.000338713
0.000124454
0.000332141
0.000330423
0.000149676
0.000475885
0.000146024
0.000593983
0.000689284
0.000743812
0.000744897
0.000858678
0.000837189
0.000752892
0.000425642
3.74461e-05
0.000107944
0.000551943
0.00029878
0.000261161
0.00025311
0.000261273
0.000454703
0.00049349
0.000523496
0.000533682
0.000500377
0.000498262
0.000305825
0.000402408
0.000245658
0.00022124
0.000196903
0.000179394
0.000156847
0.000137152
0.000125147
0.000116592
0.00011138
0.000105882
0.000101508
9.8834e-05
9.86381e-05
9.96822e-05
0.000105116
0.000110395
0.000114949
0.00012005
0.000332176
0.000132151
0.000136453
0.000137815
0.000137811
0.000133376
0.000332546
0.000115982
0.00010906
9.88743e-05
9.05516e-05
8.0565e-05
6.59527e-05
4.98859e-05
3.68974e-05
2.67072e-05
1.90262e-05
1.37284e-05
1.03526e-05
7.90871e-06
6.4066e-06
5.29237e-06
4.1814e-06
3.4842e-06
9.97615e-06
9.59739e-06
7.65788e-06
6.4079e-06
7.59907e-06
9.66094e-06
1.10005e-05
1.1552e-05
1.33753e-05
2.5675e-05
4.89422e-05
0.000142274
0.00023106
0.00024641
0.000230804
0.0003273
0.000354079
7.22195e-05
0.00027647
0.000227663
0.000209985
0.000196819
0.000219721
0.000276701
0.000326071
9.08866e-05
0.000318851
0.000258318
0.000211687
0.000201012
0.000182531
0.000179075
0.000199963
0.000233057
0.000287728
0.000462152
0.000561918
0.000139775
0.000662956
0.000666581
0.000547815
0.000401136
6.07796e-05
7.25022e-05
0.00046289
0.000257853
0.000324371
0.000194929
0.000188823
0.000193412
0.000205352
0.000217312
0.000230259
0.000242931
0.000244882
0.000240738
0.000228686
0.000214199
0.000198598
0.000187754
0.00017233
0.000156477
0.000141809
0.000127298
0.000281872
0.000111461
0.000103935
9.93256e-05
9.68124e-05
9.60996e-05
9.64254e-05
9.84751e-05
0.000102701
0.00010538
0.000110337
0.000114576
0.000118743
0.000123761
0.000126922
0.000127194
0.000126751
0.000123808
0.000117646
0.000111622
0.000105008
9.8382e-05
8.74393e-05
0.000191136
6.34903e-05
4.71126e-05
3.45638e-05
2.52901e-05
1.7993e-05
1.31649e-05
9.91143e-06
7.63907e-06
6.26362e-06
5.19268e-06
4.02919e-06
3.32715e-06
1.0298e-05
1.09855e-05
9.44933e-06
8.61679e-06
8.93297e-06
8.88039e-06
9.27572e-06
1.12358e-05
1.2877e-05
1.87956e-05
4.64562e-05
0.000131141
0.00024484
2.4418e-05
0.000321905
0.000133347
0.000132027
0.000318002
5.86297e-05
0.000217134
2.2347e-05
0.000148668
0.000158066
0.000208761
2.18999e-05
2.42496e-05
0.000206368
5.135e-05
0.00011387
9.37263e-05
8.35465e-05
7.73475e-05
0.000100975
0.000102073
0.000146503
0.000212881
0.000145113
0.000491101
0.00051655
0.000136602
0.000332143
0.000116016
8.40125e-05
0.000215396
0.000232142
0.000189758
0.000173616
0.000162048
0.000157015
0.000159288
0.000342896
0.000166384
0.000176957
0.000330886
0.000340807
0.000191299
0.000191458
0.000181721
0.000379526
0.000161739
0.000154825
0.000143678
0.000132998
0.000121059
0.000110801
0.000103663
9.73306e-05
9.38365e-05
9.17188e-05
9.09642e-05
0.000221222
9.35461e-05
9.87635e-05
0.00010339
0.000106154
0.000110283
0.000114156
0.000116306
0.000118107
0.000118666
0.000321152
0.000317663
0.000111423
0.000107592
0.000101656
9.55592e-05
8.54988e-05
7.4029e-05
6.00615e-05
4.45909e-05
3.23571e-05
2.38407e-05
1.6975e-05
1.26022e-05
9.487e-06
7.41448e-06
6.10345e-06
5.06317e-06
3.97057e-06
3.18144e-06
1.07899e-05
1.18334e-05
1.07433e-05
9.53807e-06
8.32163e-06
6.39221e-06
5.86496e-06
7.28192e-06
9.84957e-06
1.25933e-05
2.50686e-05
0.000350984
0.000149398
0.000241449
0.000291221
0.000361148
0.000337177
0.000252571
0.000215127
0.000158252
0.000122625
0.00010051
5.48759e-05
0.000136815
0.000157229
4.56564e-05
0.00011298
8.59593e-05
5.2568e-05
5.0017e-05
7.15138e-05
9.34168e-05
9.49071e-05
8.82689e-05
7.60433e-05
7.73374e-05
9.69129e-05
0.000300447
0.000288261
0.000213275
7.87999e-05
0.000121894
0.00021639
0.000224473
0.000186708
0.000359916
0.000147481
0.000142266
0.000137604
0.000136402
0.000342755
0.00014727
0.000155291
0.000159802
0.000164406
0.000167427
0.000164227
0.000160644
0.000155328
0.000321555
0.000143973
0.000132572
0.000122421
0.000111288
0.000100326
9.22493e-05
8.72501e-05
8.45192e-05
8.38348e-05
8.54977e-05
8.73791e-05
8.99583e-05
9.39352e-05
9.84047e-05
0.000103718
0.000106313
0.000108862
0.00011178
0.000112864
0.000112364
0.000110927
0.000302619
0.000107096
0.00010278
9.93486e-05
9.09732e-05
8.23195e-05
7.05802e-05
5.58487e-05
4.1806e-05
3.04776e-05
2.23672e-05
1.61464e-05
1.19951e-05
9.04167e-06
7.19202e-06
5.93486e-06
4.92283e-06
3.89984e-06
3.16715e-06
1.13662e-05
1.19809e-05
1.08048e-05
8.72096e-06
6.24353e-06
3.57099e-06
2.68438e-06
3.51729e-06
5.80524e-06
8.14897e-06
1.22131e-05
2.92562e-05
7.79155e-05
0.000128165
0.000198974
0.000237195
3.18299e-05
4.55662e-05
0.000138265
5.25659e-05
6.91086e-05
5.88087e-05
6.6483e-05
7.50858e-05
7.828e-05
3.67148e-05
0.000167672
9.06401e-05
0.00021389
8.54305e-05
8.09164e-05
9.11926e-05
0.000213323
0.000118064
0.000131823
0.00011063
8.41388e-05
0.000208637
9.66192e-05
0.000242893
0.000125761
0.000175482
0.000214346
0.000390857
0.000160327
0.000144177
0.000286967
0.000131756
0.000279974
0.000128176
0.00030525
0.000137315
0.00014288
0.00014616
0.000329388
0.000151958
0.000151417
0.000149046
0.000144255
0.00013813
0.000130771
0.000118736
0.000108103
0.0002005
8.87742e-05
8.13687e-05
7.73726e-05
7.63792e-05
7.65852e-05
7.81784e-05
7.96561e-05
8.38185e-05
8.90664e-05
9.43912e-05
9.83319e-05
0.00010357
0.000105903
0.000106235
0.000107867
0.00010798
0.000106928
0.000104608
0.000275231
0.00010126
9.52798e-05
8.85675e-05
7.73805e-05
6.66018e-05
5.22067e-05
3.86224e-05
2.85582e-05
2.07892e-05
1.5271e-05
1.13803e-05
8.66623e-06
6.94936e-06
5.75107e-06
4.77857e-06
3.83642e-06
3.14527e-06
1.19249e-05
1.13088e-05
8.46738e-06
6.21806e-06
4.84323e-06
2.61054e-06
1.56795e-06
1.53273e-06
3.08495e-06
5.04587e-06
6.84805e-06
1.21031e-05
2.95037e-05
5.7379e-05
0.000100062
8.72207e-05
0.000114755
8.65284e-05
5.85902e-05
5.10871e-05
3.53354e-05
3.29e-05
3.63869e-05
0.000131888
5.51268e-05
9.08119e-05
0.000119903
0.000100239
0.000167155
6.94114e-05
6.51412e-05
7.02105e-05
7.78606e-05
9.62124e-05
0.000136542
0.000328677
0.000192136
0.000169599
0.00017977
0.000296753
0.000164652
0.000407182
0.000180902
0.000326067
0.000283433
0.000132219
0.000123118
0.00011825
0.000118706
0.000251516
0.000126076
0.00013087
0.000134728
0.000137999
0.000140315
0.000141575
0.000139923
0.000136125
0.000130242
0.00012261
0.000113946
0.000102999
9.29837e-05
8.46085e-05
7.6049e-05
7.04283e-05
6.74736e-05
6.69515e-05
6.8142e-05
7.10211e-05
7.37623e-05
7.72839e-05
8.19117e-05
8.88605e-05
9.46041e-05
9.7804e-05
0.000102249
0.000104485
0.000104669