/*--------------------------------*- C++ -*----------------------------------*\
  =========                 |
  \\      /  F ield         | OpenFOAM: The Open Source CFD Toolbox
   \\    /   O peration     | Website:  https://openfoam.org
    \\  /    A nd           | Version:  6
     \\/     M anipulation  |
\*---------------------------------------------------------------------------*/
FoamFile
{
    version     2.0;
    format      ascii;
    class       volScalarField;
    location    "0.1";
    object      CH2O;
}
// * * * * * * * * * * * * * * * * * * * * * * * * * * * * * * * * * * * * * //

dimensions      [0 0 0 0 0 0 0];

internalField   nonuniform List<scalar> 
8000
(
4.62193e-06
2.76771e-05
8.69053e-05
0.000264655
0.000418315
0.000301858
0.000153575
7.37294e-05
3.634e-05
1.76593e-05
8.80696e-06
7.1998e-06
1.17583e-05
3.29686e-05
3.25173e-05
3.40787e-05
4.42884e-05
0.000835315
6.84076e-05
5.65126e-05
5.43724e-05
5.08214e-05
6.83172e-05
0.000167444
0.000330634
0.000488317
0.000556051
0.000537292
0.000527974
0.00159937
0.000933982
0.000248757
0.000142914
8.72925e-05
6.35856e-05
5.35186e-05
5.05401e-05
5.49786e-05
7.88444e-05
0.000112954
8.16461e-05
6.44585e-05
6.60081e-05
8.48846e-05
0.000123114
0.000189967
0.000289175
0.000424651
0.000635462
0.002065
0.00129281
0.00114424
0.00106013
0.00106951
0.0010852
0.00110442
0.00111839
0.00112094
0.0011119
0.00109059
0.000886695
0.000826131
0.000553059
0.000454868
0.00032428
0.000164297
0.000236537
0.00017728
0.000171295
0.000166869
0.000207451
0.000152826
0.00015406
0.000168878
0.000171026
0.000157959
0.000157719
0.000161296
0.000167136
0.000169681
0.000164625
0.000163699
0.000156212
0.000164836
0.000144563
0.000121467
0.000101629
8.71127e-05
0.00015191
5.8782e-05
4.54033e-05
3.51294e-05
2.8344e-05
2.36593e-05
1.57477e-05
1.22357e-05
1.0299e-05
8.96701e-06
8.43187e-06
5.73318e-06
4.51189e-06
2.8988e-05
9.06653e-05
0.000282924
0.000500972
0.000301735
0.000144805
7.00588e-05
3.43777e-05
1.63853e-05
8.25003e-06
7.83738e-06
1.61185e-05
5.13817e-05
4.92415e-05
4.00689e-05
4.58627e-05
5.58291e-05
5.86655e-05
5.98878e-05
5.67581e-05
5.34677e-05
7.4067e-05
0.000178667
0.000344302
0.000518826
0.000564682
0.000539016
0.000500533
0.000549432
0.00032004
0.000216017
0.000135505
9.10462e-05
7.36414e-05
6.53607e-05
6.17192e-05
6.53688e-05
9.22796e-05
0.00041839
0.00010489
7.41773e-05
7.37481e-05
9.30328e-05
0.000132035
0.000200242
0.000298219
0.000428689
0.000623988
0.000765962
0.000995223
0.0010383
0.00106408
0.00107459
0.00108832
0.00110482
0.00111621
0.00111705
0.00110672
0.00108539
0.000881535
0.000818588
0.000543638
0.000465164
0.000248593
0.000163569
0.000235403
0.000176756
0.00017085
0.000166182
0.000163079
0.000152084
0.000153849
0.000168071
0.000170359
0.000157772
0.000157308
0.00016099
0.000166763
0.000169694
0.00016434
0.000163595
0.000155865
0.000164401
0.000144624
0.000121216
0.000101408
8.69545e-05
7.54772e-05
5.86382e-05
4.53358e-05
3.50678e-05
2.83008e-05
2.36535e-05
1.57162e-05
1.22162e-05
1.02852e-05
8.95515e-06
8.43947e-06
5.72446e-06
5.10926e-06
3.51261e-05
0.000145386
0.0002895
0.000319539
0.000208559
0.000108381
0.000122611
0.000107141
1.72043e-05
5.26706e-05
8.4229e-06
2.07696e-05
7.59722e-05
8.64421e-05
5.52829e-05
4.45833e-05
5.17803e-05
7.09358e-05
0.000251449
7.05371e-05
6.11068e-05
8.77425e-05
0.000202533
0.000370162
0.000596766
0.000600505
0.000543106
0.000467597
0.000381097
0.000281198
0.000195527
0.000133512
0.000102037
9.8721e-05
9.94818e-05
9.05848e-05
9.15593e-05
9.85969e-05
0.000109993
9.22154e-05
8.42275e-05
8.85954e-05
0.00010974
0.000150638
0.000222028
0.000318696
0.000455277
0.00062113
0.000751285
0.000814676
0.00105512
0.00108254
0.00108618
0.00109323
0.00110422
0.0011115
0.00110892
0.00109607
0.000997915
0.000870359
0.000801448
0.000523289
0.0004247
0.000248616
0.000162004
0.000179082
0.000175574
0.000169901
0.000164752
0.000160641
0.0001507
0.000250515
0.000166273
0.000168923
0.000234439
0.000156405
0.000160323
0.000165944
0.000199288
0.0001637
0.000163374
0.000155075
0.000163518
0.000219058
0.000120655
0.000100947
8.66156e-05
7.41082e-05
5.83589e-05
4.5189e-05
3.49331e-05
0.000124284
0.000125799
1.56463e-05
1.21736e-05
1.02549e-05
8.92901e-06
0.000154873
5.7052e-06
6.84936e-06
4.37181e-05
0.000177212
0.000244971
0.000201032
0.000134237
7.30145e-05
3.94493e-05
2.00983e-05
9.07699e-06
5.35654e-06
6.00945e-06
1.42557e-05
0.000319924
0.00081737
6.50595e-05
4.07512e-05
4.55186e-05
6.13119e-05
7.00695e-05
6.10595e-05
6.13725e-05
0.000106057
0.000229481
0.000397321
0.00116663
0.00064977
0.000546955
0.00045004
0.000347645
0.000267722
0.000192378
0.000141904
0.000118692
0.000133175
0.000398422
0.000138627
0.000295559
0.000129497
0.000124126
0.000111576
0.000109605
0.000113296
0.000134086
0.000180999
0.00026332
0.000361031
0.000492875
0.000632751
0.000705815
0.000822673
0.00107701
0.00139527
0.0010965
0.00109478
0.00110041
0.00110411
0.00109785
0.00108084
0.000885207
0.000853533
0.000627666
0.000493274
0.00037792
0.000247755
0.000159904
0.000176682
0.000173694
0.00016859
0.000162664
0.000229825
0.000169643
0.000170128
0.000163465
0.000166799
0.00015399
0.000155026
0.000159328
0.000164735
0.000166744
0.000162696
0.000163061
0.000153804
0.000162361
0.000141393
0.000119775
0.000100256
8.61135e-05
7.30096e-05
5.79659e-05
4.49683e-05
3.47318e-05
2.77913e-05
2.27149e-05
1.55363e-05
1.21097e-05
1.02093e-05
8.88919e-06
8.06139e-06
5.67469e-06
6.15395e-06
5.39493e-05
0.00112812
0.000312404
0.000152284
8.96469e-05
4.67796e-05
2.34904e-05
1.11943e-05
5.2946e-06
2.94259e-05
2.82629e-05
3.14802e-05
5.53092e-05
7.22931e-05
4.75009e-05
3.44383e-05
4.15033e-05
5.50717e-05
5.85146e-05
5.48105e-05
6.79281e-05
0.000143069
0.000279358
0.000430963
0.000609044
0.000600232
0.000539115
0.000438806
0.000350535
0.000273956
0.000206108
0.000161671
0.000138139
0.000135672
0.000135799
0.000129311
0.000135573
0.000151245
0.00044797
0.000149372
0.000149767
0.000148692
0.000167909
0.000215531
0.000305835
0.000407427
0.000523017
0.000651324
0.000775469
0.000828526
0.00106853
0.00118277
0.00108887
0.00108876
0.0010925
0.00109515
0.00108458
0.000983676
0.000867425
0.000829732
0.000591626
0.000453965
0.000299904
0.000207896
0.000236865
0.00017372
0.000170934
0.000197109
0.000160112
0.000155615
0.000165366
0.000163505
0.000159916
0.000164083
0.00015086
0.000153266
0.000158025
0.000163119
0.000164305
0.00016141
0.000224047
0.000152006
0.000249254
0.00013892
0.00011864
9.93401e-05
8.54566e-05
7.18581e-05
5.74676e-05
4.46764e-05
3.44684e-05
2.73971e-05
2.19861e-05
1.53964e-05
1.20254e-05
1.01488e-05
8.83641e-06
7.75523e-06
5.63702e-06
4.83831e-06
0.000213389
0.000411552
0.000175683
9.16955e-05
5.62355e-05
2.89922e-05
7.5875e-05
6.82311e-06
4.06756e-06
3.62528e-06
4.60592e-06
7.12132e-06
3.872e-05
4.50925e-05
0.0001102
0.000150658
0.000137855
0.000208779
5.47737e-05
5.55515e-05
8.77498e-05
0.000431456
0.000576717
0.00045934
0.000578041
0.000573157
0.000540729
0.000465916
0.000367544
0.000297611
0.000235475
0.000193123
0.000168387
0.000156202
0.000147882
0.00014466
0.000152333
0.000169638
0.000185956
0.000180579
0.000205128
0.000378349
0.000204995
0.000261507
0.000363579
0.00049467
0.000564819
0.000664024
0.00129024
0.000828207
0.00105714
0.00138207
0.00108139
0.00107885
0.00108121
0.0010832
0.00106358
0.000868594
0.000841763
0.000796034
0.000545789
0.000407436
0.000290075
0.000205177
0.000230822
0.000170251
0.000167103
0.000163261
0.000157146
0.000152322
0.000160291
0.000157382
0.000155933
0.000160866
0.000147847
0.000151108
0.000156424
0.000161213
0.000162168
0.00015988
0.000228057
0.000171114
0.000156082
0.000136789
0.000117273
9.82093e-05
8.46675e-05
7.0712e-05
5.68732e-05
4.43154e-05
3.41473e-05
2.69986e-05
0.000130601
1.52312e-05
1.19341e-05
1.00726e-05
8.77197e-06
7.51081e-06
5.59341e-06
3.51451e-06
4.13014e-05
0.000123106
0.000148801
5.15126e-05
3.46607e-05
9.46815e-05
8.91619e-05
4.01219e-05
4.32653e-06
4.34395e-06
6.17313e-06
4.06182e-05
2.67249e-05
3.1127e-05
3.08048e-05
3.94441e-05
4.74771e-05
5.26422e-05
5.43278e-05
0.000219873
0.000120609
0.000229054
0.000356245
0.000471519
0.00107748
0.00105999
0.000548341
0.000972504
0.000413585
0.000337514
0.000280978
0.000240226
0.000212651
0.000196823
0.000184759
0.000178894
0.000183397
0.000198963
0.00023028
0.000423347
0.000214298
0.000209549
0.000237607
0.000294371
0.000408106
0.00111461
0.000602425
0.000663329
0.000713146
0.00081178
0.000901242
0.00136745
0.00106844
0.00106414
0.00106246
0.00106202
0.0013128
0.000843995
0.000807628
0.000746241
0.00049129
0.00042756
0.000309078
0.000133624
0.000172218
0.000166079
0.000162625
0.000159346
0.000153936
0.000149
0.000154755
0.000151656
0.000151527
0.000157242
0.000163737
0.000148643
0.000154535
0.000159096
0.000222323
0.000158118
0.000157402
0.000166453
0.000151564
0.000134848
0.000115686
9.68704e-05
0.000153813
6.95842e-05
5.62393e-05
4.38882e-05
3.3774e-05
2.65847e-05
2.07293e-05
1.50399e-05
1.18253e-05
9.98223e-06
8.69703e-06
7.30848e-06
5.5443e-06
1.47819e-05
9.96073e-05
0.000147892
4.51819e-05
2.92301e-05
1.92555e-05
8.57387e-05
9.41397e-06
5.12878e-06
4.86304e-06
2.75086e-05
4.42643e-05
2.11832e-05
7.95677e-05
2.82184e-05
3.31642e-05
4.36653e-05
5.08001e-05
5.27688e-05
5.3954e-05
6.76796e-05
0.000349368
0.000281845
0.000657633
0.000524953
0.000592103
0.000575989
0.000556177
0.000513157
0.000437288
0.000825432
0.000337637
0.000305481
0.000277524
0.000260383
0.000448825
0.000230483
0.000229953
0.000247188
0.000255131
0.000241322
0.000222156
0.000227825
0.000266833
0.000320834
0.000414647
0.000518559
0.000572359
0.000654982
0.000696312
0.000794759
0.000832214
0.00134078
0.000972332
0.000969155
0.000967723
0.000965797
0.00085327
0.000810953
0.000622283
0.000547115
0.000655776
0.000319541
0.000237023
0.000152674
0.000167225
0.000161379
0.000157523
0.000155342
0.000242582
0.000249558
0.000148805
0.00014582
0.00014678
0.000242511
0.000158393
0.000166057
0.000152309
0.000156847
0.000226814
0.000156149
0.000154467
0.000161376
0.000147297
0.000195819
0.0001139
9.5334e-05
8.22185e-05
6.84336e-05
5.5528e-05
4.34218e-05
3.33512e-05
2.61542e-05
2.01489e-05
1.48282e-05
1.17e-05
9.87762e-06
8.61027e-06
7.13483e-06
5.49016e-06
1.75045e-06
1.9888e-05
0.000103139
8.71496e-05
1.56805e-05
9.11006e-06
7.59712e-06
5.34756e-06
5.13802e-06
6.82884e-06
3.96064e-05
7.38859e-05
0.000135531
4.09905e-05
0.000128382
0.000134961
0.000219054
5.74625e-05
0.000267957
5.89134e-05
7.75303e-05
0.000145806
0.000252193
0.000379591
0.00104566
0.00113213
0.00058287
0.000566453
0.00104275
0.000474278
0.000429867
0.000405663
0.000401864
0.000378677
0.000341482
0.000315395
0.000624932
0.000292993
0.000307763
0.000616162
0.000268748
0.000256004
0.000267968
0.000300808
0.000346423
0.000421201
0.000512503
0.000569014
0.000648613
0.000683126
0.00071178
0.000810547
0.000837509
0.000854739
0.001297
0.000854139
0.00085489
0.000822001
0.000766544
0.000564356
0.00073981
0.000513205
0.000277315
0.000131687
0.000221136
0.000162053
0.000156253
0.000151768
0.000227556
0.000144584
0.000154336
0.00014228
0.000139925
0.000141762
0.000147642
0.000153016
0.000161097
0.000149578
0.000233327
0.000154454
0.000242698
0.000248342
0.000156237
0.000143057
0.00019303
0.000111797
9.36168e-05
8.05742e-05
6.72305e-05
5.47325e-05
4.29088e-05
3.28847e-05
2.55921e-05
1.96203e-05
1.45972e-05
1.15583e-05
9.76114e-06
8.51313e-06
6.98072e-06
5.43073e-06
6.79715e-07
9.19383e-06
1.74198e-05
6.31572e-05
7.18896e-06
4.88005e-06
2.67315e-05
5.00748e-06
2.57316e-05
5.10536e-05
1.92641e-05
0.00011696
6.29227e-05
0.000260022
5.57685e-05
5.368e-05
5.91184e-05
6.50995e-05
0.000269164
0.000196763
0.000210909
0.00016566
0.00025524
0.000373423
0.000505607
0.00109281
0.000579356
0.000566244
0.000549228
0.000506704
0.000488261
0.000484276
0.000561673
0.0010448
0.000932494
0.000436044
0.000402501
0.000380206
0.000369788
0.000347196
0.000308377
0.000296118
0.000308889
0.000339728
0.000392737
0.000447457
0.000515694
0.000568901
0.000646119
0.000671971
0.000692851
0.000708801
0.000809353
0.000830358
0.000830032
0.000828371
0.00124673
0.00116022
0.00057581
0.000497163
0.000413531
0.000338131
0.000225488
0.00014895
0.000150649
0.000182167
0.000150565
0.000145748
0.000241351
0.000154421
0.000144395
0.000135556
0.000134263
0.000136541
0.000141823
0.000147628
0.000247127
0.00024696
0.000151219
0.000150964
0.000150123
0.000167774
0.000151191
0.000138762
0.000125492
0.000106423
9.17357e-05
7.88516e-05
6.59761e-05
5.38688e-05
4.23461e-05
3.23852e-05
2.50204e-05
1.91141e-05
1.43457e-05
1.14012e-05
9.63523e-06
8.40408e-06
6.84208e-06
5.36519e-06
1.02706e-07
1.88066e-05
4.13375e-05
3.83616e-05
4.62344e-06
4.37556e-06
5.21957e-06
2.55966e-05
3.69415e-05
5.87992e-05
0.000107473
0.000212505
0.00022838
0.000187552
6.79511e-05
6.20873e-05
0.000313778
6.51894e-05
7.18511e-05
9.11922e-05
0.000127395
0.000190981
0.000282169
0.000376589
0.000472431
0.000574249
0.000582147
0.000569464
0.000561303
0.000549497
0.000538626
0.000543585
0.000577852
0.000566662
0.000543682
0.00105278
0.000527863
0.00101645
0.000470616
0.000912568
0.000380434
0.000356189
0.000366151
0.000400543
0.000437818
0.000478085
0.000520266
0.000565894
0.00117677
0.000660276
0.000670221
0.00067957
0.000685162
0.000802752
0.00122479
0.00079246
0.00114672
0.000584812
0.000507693
0.000426092
0.000395549
0.000228492
0.000188891
0.000213082
0.000155852
0.000149032
0.000144635
0.000139276
0.000154005
0.000236097
0.00013526
0.000129281
0.000128656
0.000131372
0.000136135
0.000142273
0.000150084
0.00016072
0.000147746
0.000246765
0.000166506
0.000160257
0.000146059
0.000134554
0.000121105
0.000103913
8.9707e-05
7.70507e-05
6.46551e-05
0.000130375
4.17311e-05
3.18676e-05
2.44377e-05
1.86251e-05
1.40828e-05
1.12307e-05
9.49383e-06
8.28615e-06
6.66987e-06
5.29492e-06
2.23673e-06
1.67484e-05
2.62008e-05
2.90738e-05
6.46101e-06
3.05322e-05
1.08384e-05
4.96776e-05
6.88663e-05
8.60518e-05
0.000133046
5.86241e-05
8.22161e-05
0.000306239
7.8019e-05
6.74358e-05
6.49293e-05
6.31235e-05
8.54083e-05
0.000260468
0.000153144
0.000226227
0.000546857
0.000392096
0.000466557
0.00107012
0.00112349
0.000575602
0.000600447
0.00110457
0.000593048
0.000590077
0.000593355
0.000585041
0.000573243
0.000597883
0.00057709
0.000591835
0.0010297
0.000501083
0.000457342
0.000427008
0.000432102
0.000470038
0.000501771
0.000508328
0.000520181
0.000552022
0.000586818
0.000641423
0.00116641
0.0011703
0.00117497
0.000647811
0.000630633
0.000608402
0.000572738
0.000512268
0.000435045
0.000401895
0.000263998
0.000126379
0.000142721
0.000156074
0.000149044
0.000141596
0.000236694
0.000241031
0.000141194
0.000134403
0.000127132
0.000123017
0.000122993
0.000126081
0.000130811
0.000136837
0.000144152
0.000153576
0.000164249
0.000161952
0.000159559
0.000153499
0.000140903
0.000130256
0.000117078
0.000101257
8.75588e-05
7.51822e-05
6.3316e-05
5.15813e-05
4.10748e-05
0.000128775
2.38457e-05
1.81502e-05
1.38087e-05
1.10451e-05
9.33922e-06
8.15765e-06
6.52791e-06
5.21873e-06
2.39204e-06
2.43832e-06
4.36538e-06
8.49635e-06
1.66346e-05
5.2867e-05
2.60201e-05
9.28811e-05
3.97613e-05
4.81441e-05
5.85824e-05
7.66155e-05
9.01671e-05
0.000142832
8.33618e-05
7.1738e-05
6.75808e-05
6.35633e-05
7.86697e-05
0.000120568
0.000177308
0.000272209
0.000711207
0.000407639
0.000464336
0.00100789
0.000566153
0.000563868
0.00115938
0.000628324
0.00114726
0.000633824
0.000652451
0.000648321
0.00061908
0.000614712
0.00063102
0.00062913
0.000583123
0.000556177
0.00106355
0.00102212
0.000502308
0.000521708
0.00109717
0.000517484
0.000516092
0.00107275
0.000530331
0.000604355
0.00109739
0.000589877
0.000585063
0.000585244
0.00102776
0.000918551
0.000498836
0.000662315
0.000421605
0.000300432
0.000211537
0.000124749
0.000150551
0.000149451
0.000201589
0.000134065
0.000239433
0.00013511
0.000130081
0.00012487
0.000119741
0.0001169
0.00011741
0.000120711
0.000125535
0.000131573
0.000138414
0.000146824
0.000247015
0.000154631
0.000152764
0.000235441
0.000135824
0.000125896
0.000113135
9.85843e-05
8.5345e-05
7.32645e-05
6.19663e-05
5.01432e-05
0.000128292
3.05863e-05
2.32408e-05
1.76891e-05
1.3519e-05
1.08459e-05
9.17365e-06
7.96846e-06
6.38866e-06
5.13945e-06
8.23928e-06
1.39128e-05
1.01062e-05
7.19419e-05
0.000172702
4.66113e-05
4.77523e-05
0.000214014
0.000262835
0.000291136
8.63594e-05
0.000304148
0.000102201
0.000121821
0.000256749
7.87313e-05
7.33771e-05
0.000218442
0.00015254
0.000298503
0.000204168
0.000519333
0.000423836
0.000422005
0.000452721
0.000495921
0.000530511
0.000546962
0.000568068
0.000591685
0.000607542
0.000630159
0.000659593
0.00117007
0.000653723
0.000650159
0.000652535
0.000653586
0.00113598
0.000571654
0.000558078
0.000531022
0.000530322
0.000559862
0.00111658
0.000511546
0.000493577
0.000480955
0.000475511
0.000492544
0.000472903
0.000469828
0.000463719
0.000888011
0.000863199
0.0004622
0.000423061
0.000498899
0.00030862
0.00021673
0.00013779
0.000133588
0.000151046
0.000142332
0.000134204
0.000140715
0.000132745
0.000124145
0.000120834
0.00011658
0.000113005
0.000111158
0.000112088
0.000115514
0.0001203
0.000126353
0.000132767
0.000140221
0.000150231
0.000147815
0.000146424
0.000141366
0.000130935
0.00019247
0.000106371
0.00016824
0.000155726
7.12757e-05
6.05598e-05
4.86781e-05
3.91485e-05
2.97875e-05
2.26207e-05
1.72532e-05
1.32177e-05
1.06335e-05
8.99576e-06
7.77714e-06
6.25012e-06
5.06161e-06
4.64879e-05
5.11406e-05
3.78393e-05
0.00025946
0.000187037
6.6647e-05
0.000296446
7.65805e-05
0.000250048
0.000102716
0.000242267
0.000257537
0.000104996
0.000118721
0.000185305
8.53124e-05
8.01963e-05
0.000153859
9.63598e-05
0.000352772
0.000236676
0.000315717
0.000676085
0.000389643
0.000441329
0.000470159
0.00101893
0.000512197
0.000520162
0.000550738
0.000586634
0.00059179
0.00112951
0.000627445
0.00115544
0.000664106
0.000669099
0.00121129
0.00115855
0.000579395
0.000568507
0.000566846
0.000566042
0.000569374
0.00052687
0.00047597
0.000449555
0.000433006
0.000438908
0.000819667
0.00046985
0.000433921
0.000438392
0.000447589
0.000440927
0.000523345
0.000393635
0.000324327
0.000223282
0.000123168
0.000197089
0.000145009
0.00014051
0.000134599
0.000142937
0.000128518
0.000120735
0.000114574
0.000194259
0.000109342
0.000103669
0.000102518
0.000103933
0.00011043
0.000115303
0.000121109
0.000127448
0.000133841
0.000232766
0.000141214
0.000140126
0.000135363
0.000126067
0.000116921
0.000102388
9.28063e-05
8.07703e-05
6.93615e-05
5.91051e-05
4.71971e-05
0.000131145
2.90124e-05
2.20046e-05
1.68166e-05
1.29448e-05
1.04204e-05
8.80766e-06
7.57924e-06
6.11222e-06
4.97685e-06
1.46152e-05
0.000141028
8.92786e-05
0.000334666
0.000126174
0.000245253
6.9359e-05
0.000161146
0.000172585
9.03885e-05
9.46173e-05
0.00015639
0.000108507
0.000117272
0.000103961
0.000239458
8.06208e-05
7.91315e-05
9.74897e-05
0.000152687
0.000358541
0.00044393
0.000326984
0.000667376
0.000827908
0.000961951
0.000952848
0.000451595
0.000456401
0.000507491
0.00106427
0.00108738
0.000544591
0.000545328
0.000577595
0.00118083
0.00118589
0.000650168
0.000613223
0.00112451
0.00057974
0.000584987
0.00113872
0.000537429
0.00102708
0.000430982
0.000821599
0.000381689
0.000405873
0.000558031
0.000427238
0.00041096
0.000384556
0.000380952
0.000352861
0.00033
0.000260632
0.00018105
0.000123971
0.000192767
0.000153996
0.000175204
0.000130525
0.000143952
0.000127158
0.000115515
0.000108571
0.000104528
0.00010044
9.8221e-05
9.65622e-05
9.6179e-05
9.78016e-05
0.000101578
0.000181637
0.000115018
0.000121224
0.00019745
0.000133632
0.000214159
0.000132861
0.000128852
0.000120311
0.000111498
9.78136e-05
0.00016305
7.7774e-05
6.70311e-05
5.73641e-05
0.00013343
3.62068e-05
2.80795e-05
2.13027e-05
1.62892e-05
1.2612e-05
1.01663e-05
8.56503e-06
7.33716e-06
5.94439e-06
4.87136e-06
4.74236e-06
2.5431e-05
9.38961e-05
0.00011409
9.70432e-05
7.0368e-05
6.43577e-05
9.29295e-05
8.51848e-05
8.64257e-05
0.000141386
0.000137218
0.00013305
0.000117439
0.000143737
9.02289e-05
8.4002e-05
0.000155758
0.000251374
0.000163967
0.000210386
0.000250281
0.000287722
0.000344223
0.000808798
0.000835863
0.000831065
0.000413803
0.000824916
0.000426561
0.000441124
0.000457307
0.000462157
0.000486198
0.000512474
0.00052908
0.000534605
0.000542974
0.00111933
0.00057985
0.0011283
0.00116619
0.00113391
0.000510644
0.000431366
0.000379848
0.000342597
0.000318766
0.000303189
0.000280728
0.000214749
0.000207061
0.00019938
0.000198464
0.000183215
0.000172363
0.000134412
0.000148679
0.000143932
0.000168382
0.000188016
0.000220309
0.000135484
0.000124827
0.000112362
0.000102656
9.4572e-05
9.18678e-05
9.09431e-05
9.04061e-05
8.95708e-05
8.95682e-05
9.1449e-05
9.50983e-05
9.98139e-05
0.000108284
0.00011386
0.000118615
0.000124221
0.000125009
0.000125097
0.000121601
0.000114026
0.000102519
9.28868e-05
8.43031e-05
7.42912e-05
6.42134e-05
5.49361e-05
4.33861e-05
3.42401e-05
2.67561e-05
2.04664e-05
1.56634e-05
1.22213e-05
9.8592e-06
8.26517e-06
7.08816e-06
5.74431e-06
4.73664e-06
1.28565e-05
5.31069e-06
4.82527e-05
8.59972e-05
7.03277e-05
3.85292e-05
3.40454e-05
5.04801e-05
5.92693e-05
8.04849e-05
0.000279546
0.000128485
0.000123703
0.000135793
0.000136798
0.000149371
0.000102856
0.000119849
0.000389119
0.000210807
0.00039911
0.000236063
0.000265471
0.000321093
0.000675219
0.000356416
0.000348175
0.000348209
0.000667064
0.000363077
0.000799478
0.000839057
0.000403045
0.000445293
0.000940548
0.000431013
0.000456169
0.000487404
0.000528587
0.00108787
0.000532597
0.000527151
0.000506038
0.000974845
0.00038235
0.000330657
0.000294835
0.000225804
0.000178173
0.000160733
0.000160855
0.000149663
0.00015889
0.000148965
0.000152384
0.000145259
0.000145352
0.000165301
0.000132509
0.000125844
0.000119043
0.000127545
0.000116854
0.000109214
0.000187314
8.96236e-05
8.50496e-05
8.31767e-05
0.000164672
0.000163189
8.30021e-05
8.33143e-05
8.52226e-05
8.89732e-05
9.34857e-05
9.88633e-05
0.000106832
0.000111009
0.000115501
0.000116824
0.000117141
0.000114563
0.000182023
9.65802e-05
8.79853e-05
8.00195e-05
7.08453e-05
6.13527e-05
5.23619e-05
0.000137387
3.24587e-05
2.54599e-05
1.96228e-05
1.50298e-05
1.18195e-05
9.53745e-06
7.97399e-06
6.8408e-06
5.54773e-06
4.59021e-06
1.47639e-05
8.79418e-06
2.39677e-05
3.79077e-05
2.75961e-05
1.35168e-05
1.41625e-05
1.8307e-05
2.81295e-05
5.8682e-05
0.000124017
0.000155732
0.000143217
0.000145719
0.000176576
0.000130221
0.000140232
0.000352326
0.00017328
0.000188874
0.000211727
0.000449972
0.000490024
0.000523574
0.000574699
0.000310929
0.000302926
0.000292165
0.000276904
0.00029274
0.000576253
0.000298097
0.000318208
0.00074202
0.000343894
0.000358482
0.00082674
0.00041811
0.00043845
0.00046494
0.000477873
0.000993078
0.000421771
0.00037354
0.000444191
0.00032941
0.000229635
0.000149476
0.000145757
0.000145126
0.000147091
0.000182764
0.000178291
0.000144136
0.000140678
0.000137275
0.000133608
0.000126881
0.000120071
0.000130447
0.000119687
0.000198362
0.00010198
0.000184771
8.65899e-05
8.0303e-05
7.68155e-05
7.56985e-05
7.58876e-05
7.66033e-05
0.000154363
7.76126e-05
7.96164e-05
8.31684e-05
8.74537e-05
9.29413e-05
9.72831e-05
0.000101173
0.000107726
0.000189762
0.000109818
0.000107939
9.87152e-05
9.12961e-05
8.32748e-05
7.57845e-05
6.76315e-05
5.84822e-05
4.95954e-05
3.9094e-05
3.07394e-05
2.41945e-05
1.87114e-05
1.44046e-05
1.14127e-05
9.19727e-06
7.70128e-06
6.58676e-06
5.34956e-06
4.43575e-06
1.48184e-05
1.31947e-05
2.44272e-05
3.18857e-05
3.2582e-05
3.85515e-05
3.78287e-05
2.64693e-05
2.22633e-05
4.13152e-05
9.385e-05
0.000307939
0.000169202
0.000338846
0.000169035
0.000175416
0.000187151
0.000185318
0.000183858
0.000179773
0.000188647
0.000481779
0.000204983
0.000234588
0.000258324
0.000266778
0.000276382
0.00046143
0.000214815
0.000415345
0.000212502
0.000213443
0.000411409
0.000261419
0.000518232
0.000309473
0.000345716
0.000365846
0.000394809
0.000408429
0.000406184
0.000384772
0.000345261
0.000423897
0.000266616
0.000168165
0.000158858
0.000145828
0.000142615
0.000143829
0.000233442
0.000230698
0.000226755
0.000130404
0.000225726
0.000123682
0.000139942
0.000224155
0.000120961
0.000112375
0.000103706
9.47194e-05
8.79678e-05
8.30301e-05
7.70982e-05
7.20077e-05
6.93157e-05
6.87538e-05
6.9214e-05
7.01585e-05
7.11059e-05
7.20495e-05
7.40548e-05
7.77126e-05
8.18982e-05
8.71791e-05
0.000169228
9.44335e-05
9.76049e-05
9.93509e-05
9.99054e-05
9.83621e-05
0.000171301
8.58634e-05
7.88997e-05
7.16688e-05
6.43521e-05
5.5695e-05
4.6804e-05
3.67783e-05
2.90399e-05
2.30526e-05
1.77996e-05
1.37629e-05
1.09912e-05
8.83945e-06
7.44543e-06
6.36807e-06
5.14033e-06
4.27411e-06
1.48462e-05
1.46663e-05
2.01811e-05
3.22566e-05
4.1402e-05
4.62029e-05
5.2484e-05
5.24979e-05
3.52794e-05
3.51235e-05
8.18592e-05
0.000135678
0.000199644
0.000222523
0.000216274
0.000257361
0.000260762
0.000427767
0.000209839
0.000180591
0.000166222
0.000154482
0.000163039
0.000188898
0.000211816
0.000475356
0.000212586
0.000185009
0.000161897
0.000157875
0.00015431
0.000161816
0.000174239
0.000190301
0.000216761
0.000269574
0.000306538
0.000619167
0.00034377
0.000352727
0.000360478
0.000320842
0.000415917
0.000252933
0.000162878
0.000144119
0.000198372
0.000120258
0.000118406
0.000120298
0.000124408
0.000125724
0.000127099
0.000128783
0.00012624
0.000122001
0.000116826
0.000110923
0.000104601
9.58549e-05
8.89278e-05
8.29092e-05
7.77475e-05
7.35159e-05
0.000162646
6.44818e-05
6.20797e-05
6.19842e-05
6.28535e-05
6.42553e-05
6.5515e-05
6.67466e-05
6.8882e-05
7.23641e-05
7.65739e-05
8.16679e-05
8.53611e-05
8.8414e-05
9.11885e-05
9.24952e-05
9.33297e-05
9.23211e-05
8.71022e-05
8.09138e-05
7.45762e-05
6.79825e-05
6.08163e-05
0.000145461
4.4259e-05
3.46581e-05
2.73564e-05
2.17405e-05
1.6832e-05
1.31236e-05
1.04755e-05
8.47511e-06
7.18302e-06
6.15148e-06
4.93835e-06
4.09662e-06
1.50435e-05
1.53498e-05
1.60264e-05
2.25104e-05
2.72822e-05
2.61668e-05
3.24813e-05
4.98712e-05
5.24647e-05
3.68747e-05
5.4662e-05
0.000125544
0.000187305
0.000567458
0.000244358
0.000487943
0.000466682
0.000225321
0.000439859
0.000166488
0.000439614
0.000125604
0.000129098
0.000153989
0.000487952
0.000488807
0.000171648
0.00029183
0.000123937
0.000114343
0.000117195
0.000134012
0.000235859
0.000153958
0.000180191
0.00022087
0.000460194
0.000297175
0.000308286
0.000558522
0.000309711
0.00040015
0.000237165
0.000148221
0.00013082
0.000115991
0.000103658
9.82339e-05
9.73892e-05
9.95104e-05
0.00019281
0.000104501
0.000105951
0.000199543
0.000200261
0.000103538
9.81701e-05
9.34666e-05
0.000179756
8.35018e-05
7.7981e-05
7.28908e-05
6.85992e-05
6.4914e-05
6.0914e-05
5.71972e-05
5.54146e-05
5.5724e-05
5.6852e-05
5.85981e-05
0.000145414
6.13788e-05
6.37444e-05
6.74143e-05
7.14685e-05
7.63393e-05
7.98134e-05
8.26475e-05
8.51555e-05
8.64002e-05
0.000169818
0.000169425
8.15709e-05
7.61402e-05
7.04125e-05
6.41006e-05
5.74724e-05
4.98031e-05
4.14872e-05
3.26492e-05
2.57305e-05
2.04932e-05
1.58893e-05
1.24967e-05
9.96969e-06
8.1515e-06
6.90789e-06
5.90967e-06
4.77566e-06
3.93971e-06
1.53242e-05
1.55603e-05
1.45129e-05
1.50478e-05
1.46176e-05
1.22425e-05
1.55278e-05
3.0188e-05
4.84629e-05
4.31898e-05
3.641e-05
5.31544e-05
0.000131489
0.000181163
0.000209919
0.000239506
0.000222916
0.000180261
0.000158538
0.000128344
0.000105449
9.12971e-05
0.000249494
0.000116227
0.00013636
0.000259127
0.000152208
0.00017512
0.000103882
8.71784e-05
8.20661e-05
9.43816e-05
0.00010634
0.000124307
0.000155238
0.000187501
0.000209875
0.000275699
0.000282551
0.000273285
0.000252247
0.000146547
0.000142493
0.00012439
0.000103853
0.000165929
8.58499e-05
8.25379e-05
8.25709e-05
8.4692e-05
0.000174542
8.69523e-05
8.83999e-05
8.97849e-05
8.91174e-05
8.73003e-05
8.43475e-05
8.09e-05
7.75939e-05
0.000170482
6.81446e-05
6.3524e-05
5.98768e-05
5.67112e-05
5.30357e-05
5.02133e-05
4.89943e-05
4.9587e-05
5.10099e-05
5.29684e-05
5.48237e-05
5.63703e-05
5.87854e-05
6.24138e-05
6.66261e-05
7.11931e-05
7.44071e-05
7.73508e-05
7.96753e-05
8.07465e-05
8.16884e-05
0.000165478
7.65436e-05
7.14058e-05
6.63701e-05
6.01331e-05
5.39908e-05
4.67724e-05
3.87781e-05
3.06478e-05
2.42291e-05
1.92755e-05
1.50241e-05
1.18718e-05
9.46253e-06
7.82296e-06
6.63936e-06
5.66573e-06
4.6043e-06
3.84044e-06
1.56219e-05
1.51213e-05
1.33933e-05
1.11792e-05
8.46227e-06
5.63536e-06
7.00292e-06
1.63724e-05
3.39707e-05
4.26264e-05
3.12795e-05
3.66983e-05
7.15063e-05
0.00011234
0.000148102
0.000165245
0.000442801
0.000331698
0.000111443
0.000220558
6.70588e-05
6.07952e-05
6.89281e-05
8.24192e-05
9.53148e-05
0.000108792
0.000120358
8.88036e-05
0.000103109
5.81274e-05
5.18245e-05
6.50205e-05
0.000104113
9.11638e-05
0.000127597
0.000166098
0.000186329
0.000310351
0.000176192
0.000290978
0.000137316
0.000126684
0.000116038
0.000166776
8.4483e-05
7.58694e-05
0.000151037
6.86952e-05
0.000153936
7.25849e-05
0.000162997
7.42747e-05
7.56999e-05
7.70583e-05
0.000170501
7.51865e-05
7.2763e-05
6.9772e-05
6.6551e-05
6.30552e-05
5.87865e-05
5.47383e-05
5.16376e-05
0.000163249
4.59699e-05
4.3855e-05
4.30575e-05
4.40037e-05
4.56854e-05
4.76663e-05
4.94804e-05
5.14417e-05
5.40044e-05
5.77142e-05
6.17422e-05
6.62059e-05
6.94037e-05
7.20882e-05
7.43753e-05
7.54761e-05
7.63237e-05
7.58683e-05
0.000157135
6.7081e-05
6.22696e-05
5.64597e-05
5.03921e-05
4.36661e-05
3.63096e-05
2.86679e-05
2.27472e-05
1.8063e-05
1.41784e-05
1.12444e-05
9.01756e-06
7.48261e-06
6.37123e-06
5.42347e-06
4.45562e-06
3.73249e-06
1.58364e-05
1.39038e-05
1.02521e-05
7.32246e-06
4.89817e-06
2.85554e-06
3.77326e-06
1.00328e-05
2.35315e-05
3.56127e-05
3.16522e-05
2.31582e-05
3.47722e-05
6.25915e-05
8.96051e-05
0.000211205
9.25635e-05
7.50487e-05
0.000178273
5.22435e-05
3.94294e-05
3.63642e-05
4.08734e-05
7.02958e-05
5.55221e-05
5.40302e-05
5.36044e-05
6.47651e-05
8.4894e-05
4.36878e-05
3.58767e-05
3.9504e-05
4.85963e-05
6.6464e-05
0.000105741
0.000169848
0.000162998
0.000162692
0.000152117
0.000200983
0.000116841
0.000162321
8.94645e-05
0.00015242
0.000150441
5.97193e-05
5.65196e-05
5.57249e-05
5.75812e-05
0.000155999
6.16668e-05
6.23931e-05
6.39066e-05
6.5427e-05
6.53445e-05
6.40323e-05
6.19262e-05
5.93591e-05
5.64666e-05
5.34614e-05
5.01804e-05
4.68174e-05
4.40173e-05
4.2125e-05
3.94918e-05
3.79827e-05
3.76546e-05
3.87516e-05
4.05636e-05
4.2773e-05
4.4757e-05
4.67191e-05
4.93136e-05