/*--------------------------------*- C++ -*----------------------------------*\
  =========                 |
  \\      /  F ield         | OpenFOAM: The Open Source CFD Toolbox
   \\    /   O peration     | Website:  https://openfoam.org
    \\  /    A nd           | Version:  6
     \\/     M anipulation  |
\*---------------------------------------------------------------------------*/
FoamFile
{
    version     2.0;
    format      ascii;
    class       volScalarField;
    location    "0.1";
    object      CH3;
}
// * * * * * * * * * * * * * * * * * * * * * * * * * * * * * * * * * * * * * //

dimensions      [0 0 0 0 0 0 0];

internalField   nonuniform List<scalar> 
8000
(
1.76513e-09
1.30654e-06
2.41481e-05
0.000111609
0.000170384
0.000122363
5.21293e-05
1.45402e-05
2.3968e-06
1.72208e-07
1.29457e-08
5.7584e-09
2.04664e-08
5.72477e-07
3.78934e-07
3.3928e-07
2.59361e-06
0.000210885
1.24342e-05
3.3082e-06
3.71064e-06
7.77871e-06
3.36934e-05
0.000133166
0.000202956
0.000221447
0.000224376
0.000212985
0.000203101
0.000455515
0.00018056
0.000149286
0.000104888
6.58858e-05
4.51192e-05
3.4937e-05
3.15681e-05
3.51364e-05
5.40548e-05
7.9576e-05
5.85384e-05
4.78568e-05
5.10482e-05
6.66606e-05
9.33648e-05
0.000125986
0.00014923
0.000160917
0.000154748
0.000606264
7.53862e-05
0.000109802
0.000101888
9.65663e-05
8.81883e-05
7.84607e-05
7.04394e-05
6.63494e-05
6.70749e-05
7.29157e-05
7.88983e-05
9.77202e-05
9.57557e-05
0.000135094
0.000110793
6.18277e-05
0.000100712
7.74275e-05
7.94474e-05
8.01175e-05
0.000141214
8.09672e-05
8.11059e-05
0.000132606
0.000132192
8.04643e-05
8.04461e-05
8.04161e-05
8.00408e-05
8.0057e-05
8.10822e-05
8.13772e-05
8.16976e-05
0.000133008
0.000127502
0.00011659
0.000104341
9.43842e-05
0.000125971
6.74786e-05
5.35578e-05
4.34032e-05
3.69652e-05
3.19236e-05
2.21112e-05
1.75493e-05
1.49401e-05
1.31022e-05
1.22324e-05
8.47456e-06
1.56748e-09
1.43521e-06
2.70672e-05
0.00011957
0.000195049
0.000122542
4.867e-05
1.36567e-05
2.07035e-06
1.28295e-07
9.98734e-09
7.16293e-09
4.56345e-08
6.44285e-06
2.98317e-06
6.35546e-07
1.16478e-06
6.52224e-06
7.06813e-06
8.28285e-06
5.81176e-06
1.01552e-05
4.00634e-05
0.000141404
0.000205886
0.000227109
0.00022316
0.000213551
0.000199333
0.000202683
0.000155098
0.00013671
0.000100688
6.9222e-05
5.34637e-05
4.47439e-05
4.07374e-05
4.35041e-05
6.43417e-05
0.000196208
7.53995e-05
5.47205e-05
5.62733e-05
7.17037e-05
9.793e-05
0.000129608
0.000150553
0.000161171
0.000159074
0.000130202
0.000126529
0.000110994
0.00010042
9.43282e-05
8.65919e-05
7.76813e-05
7.04863e-05
6.71761e-05
6.84563e-05
7.46888e-05
8.11306e-05
9.94782e-05
9.61202e-05
0.000140526
8.75835e-05
6.17861e-05
0.000100711
7.74324e-05
7.94218e-05
8.01287e-05
8.06297e-05
8.08478e-05
8.10375e-05
0.000132425
0.000132043
8.04223e-05
8.04104e-05
8.03873e-05
8.00537e-05
7.99948e-05
8.10555e-05
8.13399e-05
8.16322e-05
0.000132907
0.000127495
0.000116412
0.000104153
9.42378e-05
8.66958e-05
6.72948e-05
5.34817e-05
4.33261e-05
3.69081e-05
3.1911e-05
2.20681e-05
1.75232e-05
1.49208e-05
1.30856e-05
1.22418e-05
8.46229e-06
2.44805e-09
2.12045e-06
2.7195e-05
0.000110825
0.000123366
7.87876e-05
3.19599e-05
1.72502e-05
1.0844e-05
9.77309e-08
1.51584e-06
8.33892e-09
8.72187e-08
1.0351e-05
2.14015e-05
1.60974e-06
7.24296e-07
1.18068e-06
1.11827e-05
0.000218778
1.29387e-05
1.64844e-05
5.48725e-05
0.000158092
0.000210677
0.000239306
0.000227776
0.000214627
0.000196616
0.00017077
0.000151622
0.000129932
0.000100315
7.79582e-05
7.30024e-05
7.08331e-05
6.29945e-05
6.32021e-05
6.88065e-05
7.72759e-05
6.55432e-05
6.09822e-05
6.56988e-05
8.16135e-05
0.000107152
0.000136974
0.000153172
0.000165788
0.000160561
0.000139237
0.00011235
0.000104847
9.25087e-05
8.90058e-05
8.35829e-05
7.63971e-05
7.07152e-05
6.88836e-05
7.13203e-05
7.63057e-05
8.5738e-05
0.000102969
9.66563e-05
0.000131265
8.82006e-05
6.16915e-05
7.6268e-05
7.74538e-05
7.93461e-05
8.0124e-05
8.06386e-05
8.06099e-05
0.000180866
0.000132025
0.000131716
0.000161541
8.03321e-05
8.03219e-05
8.0065e-05
0.000136055
8.09977e-05
8.12573e-05
8.1486e-05
0.000132692
0.000173308
0.000116017
0.000103741
9.39287e-05
8.45476e-05
6.69483e-05
5.33162e-05
4.31577e-05
6.75087e-05
6.21138e-05
2.19728e-05
1.74663e-05
1.48784e-05
1.30493e-05
4.25886e-05
8.43517e-06
6.11289e-09
3.82795e-06
7.07774e-05
0.000103665
7.66451e-05
4.43633e-05
1.71704e-05
4.14637e-06
3.61289e-07
1.59753e-08
2.09288e-09
2.88737e-09
3.25554e-08
3.01693e-05
0.000255715
2.5005e-06
5.28174e-07
6.91803e-07
4.80806e-06
1.06537e-05
8.56898e-06
2.04878e-05
7.3923e-05
0.000170904
0.000214594
0.000129097
0.000238777
0.00021614
0.000194844
0.000172619
0.00015267
0.000130064
0.000105543
8.96456e-05
9.85797e-05
0.000195735
9.87601e-05
0.000148129
8.90771e-05
8.48412e-05
7.68886e-05
7.61681e-05
8.05281e-05
9.52833e-05
0.000117354
0.000140837
0.00016132
0.000167428
0.000156359
0.000130666
0.000108003
9.51394e-05
4.35803e-05
8.29105e-05
8.07046e-05
7.54559e-05
7.13595e-05
7.14082e-05
7.59191e-05
7.83244e-05
9.19067e-05
9.32121e-05
9.68463e-05
0.000120697
8.86743e-05
6.1627e-05
7.63417e-05
7.75235e-05
7.92005e-05
7.99932e-05
0.000158019
0.000132123
0.000132158
0.000131399
0.000131229
8.01917e-05
8.02097e-05
8.02216e-05
8.0068e-05
8.02124e-05
8.09111e-05
8.11308e-05
8.12554e-05
0.000132388
0.000126031
0.000115396
0.000103118
9.34748e-05
8.2934e-05
6.647e-05
5.30678e-05
4.2906e-05
3.61615e-05
3.06723e-05
2.18232e-05
1.73811e-05
1.48144e-05
1.29941e-05
1.17341e-05
8.392e-06
4.34319e-09
4.79253e-06
0.000131168
0.000145026
5.60809e-05
2.50743e-05
7.09743e-06
8.76359e-07
4.31442e-08
2.31424e-09
3.8656e-07
1.54903e-07
1.80566e-07
2.08121e-06
8.16167e-06
8.72555e-07
3.26805e-07
5.33748e-07
2.0937e-06
4.01102e-06
7.92627e-06
3.063e-05
0.000107674
0.000194696
0.000223818
0.000237055
0.000228384
0.000217181
0.000192558
0.000178126
0.00015795
0.000136586
0.000115744
0.00010047
9.8139e-05
9.70135e-05
9.11999e-05
9.36011e-05
0.000101586
0.000181325
9.86609e-05
9.86743e-05
0.000100344
0.000109217
0.000131939
0.000149357
0.000156345
0.000158129
0.000148564
0.000126543
0.000103361
9.54168e-05
9.02119e-05
8.24017e-05
7.96581e-05
7.55535e-05
7.26785e-05
7.49122e-05
8.11548e-05
8.67376e-05
9.89056e-05
9.6143e-05
9.55529e-05
0.000100408
7.65232e-05
9.8646e-05
7.65087e-05
7.7639e-05
0.00013456
7.97937e-05
8.03024e-05
0.000131201
0.000131002
0.000130592
0.000130592
7.9823e-05
8.00302e-05
8.00779e-05
7.99786e-05
8.0273e-05
8.07889e-05
0.000153469
8.09318e-05
0.000185079
0.000124687
0.000114593
0.000102291
9.2889e-05
8.12696e-05
6.58731e-05
5.27398e-05
4.2577e-05
3.55928e-05
2.97267e-05
2.16338e-05
1.72686e-05
1.47294e-05
1.29209e-05
1.13242e-05
8.33854e-06
1.77216e-09
1.63487e-05
0.000203032
7.52464e-05
2.76033e-05
1.09391e-05
1.7405e-06
5.56551e-06
6.09464e-09
6.10735e-10
3.22873e-10
8.73886e-10
4.80535e-09
5.69292e-07
8.41513e-07
2.31328e-06
3.71467e-06
3.70311e-06
8.44787e-06
3.45091e-06
1.22297e-05
5.28047e-05
0.000241973
0.00024867
0.000223188
0.00023156
0.000222637
0.000217771
0.000201449
0.000183101
0.000165496
0.00014782
0.00012572
0.000114843
0.000106578
0.000100442
9.74489e-05
0.000101113
0.000110245
0.00011409
0.000111297
0.000122682
0.000202689
0.000126431
0.000140031
0.000160763
0.000165871
0.000154121
0.000141044
8.12283e-05
0.000100328
9.51423e-05
4.90894e-05
8.12041e-05
7.96703e-05
7.69109e-05
7.56665e-05
8.22164e-05
8.51398e-05
9.65552e-05
0.000105649
9.7588e-05
9.25418e-05
0.000100076
7.70138e-05
9.86326e-05
7.67313e-05
7.76625e-05
7.89827e-05
7.95142e-05
7.99405e-05
0.000130061
0.000129719
0.000129425
0.000129804
7.93548e-05
7.9689e-05
7.98834e-05
7.98533e-05
8.01676e-05
8.06283e-05
0.000156678
0.000132664
0.00013023
0.000123489
0.000113623
0.000101266
9.21541e-05
7.97214e-05
6.5171e-05
5.2335e-05
4.21767e-05
3.50418e-05
5.92398e-05
2.14104e-05
1.71409e-05
1.46228e-05
1.28314e-05
1.0994e-05
8.27651e-06
4.35949e-10
1.66131e-06
4.87719e-05
2.29368e-05
8.7475e-06
2.8438e-06
7.27664e-06
3.93353e-06
5.96931e-07
7.02379e-10
6.59601e-10
2.87196e-09
3.91814e-07
1.8603e-07
2.7102e-07
2.45626e-07
4.5923e-07
9.1368e-07
1.89676e-06
4.59562e-06
5.08932e-05
8.82275e-05
0.000173536
0.000213245
0.00022174
0.000161371
0.000167646
0.000216959
0.000192125
0.000190921
0.000174377
0.000155309
0.000143819
0.000129319
0.000120007
0.000112911
0.000113161
0.000111623
0.000118908
0.000132528
0.000201371
0.000127554
0.000127138
0.000132716
0.000148423
0.0001565
0.00014868
0.000150793
0.000136816
0.000116205
0.000103039
8.98261e-05
5.37233e-05
8.19446e-05
8.18391e-05
8.17223e-05
8.28255e-05
7.41188e-05
9.54536e-05
0.000106879
0.000110291
9.68169e-05
0.000136243
0.000108687
0.000102648
7.47985e-05
7.6796e-05
7.76594e-05
7.86672e-05
7.91217e-05
7.93141e-05
0.000128514
0.000127944
0.000127942
0.000128885
0.000129123
7.92393e-05
7.96467e-05
7.96942e-05
0.000151853
8.04133e-05
8.06084e-05
0.000131683
0.000128442
0.000122357
0.000112496
0.000100053
0.000125246
7.80953e-05
6.42602e-05
5.18566e-05
4.17123e-05
3.44798e-05
2.80767e-05
2.11525e-05
1.6989e-05
1.44961e-05
1.2727e-05
1.07187e-05
8.20663e-06
1.37015e-07
4.79203e-06
1.55238e-05
5.30534e-06
1.43485e-06
2.20119e-07
3.93152e-06
1.19788e-08
1.48489e-09
1.05134e-09
1.54406e-07
4.08994e-07
9.76753e-08
1.98688e-06
2.06257e-07
3.05525e-07
6.96413e-07
1.48357e-06
2.92958e-06
7.63487e-06
2.93076e-05
0.000227191
0.000202213
0.000248443
0.000232669
0.000225835
0.000220714
0.000215421
0.0002069
0.000192293
0.000218157
0.000169339
0.000156506
0.000145404
0.00013745
0.000191722
0.000130339
0.000130296
0.0001308
0.000134254
0.00013033
0.000131256
0.000135381
0.000141357
0.000153261
0.00015562
0.000155265
0.000146047
0.000134575
0.000116674
0.000105798
9.15086e-05
6.33579e-05
8.39451e-05
8.49581e-05
8.62371e-05
8.87411e-05
9.26833e-05
0.000106771
0.000100667
9.64216e-05
0.000126366
0.000119281
8.75634e-05
6.06504e-05
7.48806e-05
7.66844e-05
7.74628e-05
7.81683e-05
0.000169015
0.000181285
0.000126514
0.000125989
0.000126104
0.000179015
0.000128015
0.000128794
7.93504e-05
7.94845e-05
0.000155335
8.01536e-05
8.03495e-05
0.000130558
0.000126709
0.000163453
0.000111227
9.86627e-05
8.92318e-05
7.63922e-05
6.32593e-05
5.12551e-05
4.11893e-05
3.39018e-05
2.72607e-05
2.08676e-05
1.68141e-05
1.43495e-05
1.26063e-05
1.04816e-05
8.12935e-06
3.29585e-11
1.19791e-07
7.57194e-06
6.61815e-06
1.02923e-07
1.36938e-08
6.75303e-09
1.83619e-09
1.39772e-09
3.86137e-09
2.57434e-07
1.14399e-06
7.8194e-06
9.04328e-07
5.05143e-06
4.72684e-06
9.38897e-06
2.8904e-06
2.449e-05
1.57929e-05
4.45068e-05
0.000119017
0.00018851
0.000215068
0.000171538
0.000142027
0.000217648
0.000214418
0.000172936
0.000198149
0.000188064
0.00018093
0.000174154
0.00016762
0.000162544
0.000151408
0.000203721
0.0001443
0.00014732
0.000211328
0.000138267
0.000135222
0.000139879
0.000148547
0.000155952
0.000154137
0.000157919
0.000143379
0.000131418
0.000116088
0.00010422
9.80415e-05
9.01509e-05
8.57995e-05
7.98821e-05
8.99524e-05
9.28e-05
0.000103978
0.00011623
0.000104373
0.000123374
0.000150249
0.000100395
0.000100172
9.58433e-05
7.49764e-05
7.64134e-05
7.68276e-05
0.000154813
7.75882e-05
0.000126266
0.000124253
0.0001238
0.000123993
0.000125514
0.000126596
0.000127657
7.88849e-05
0.000160102
7.94974e-05
0.000169024
0.000177599
0.000129099
0.000124955
0.000161408
0.000109716
9.71038e-05
8.71975e-05
7.46698e-05
6.22202e-05
5.05609e-05
4.0615e-05
3.31189e-05
2.65273e-05
2.05582e-05
1.66165e-05
1.41858e-05
1.24731e-05
1.02719e-05
8.04445e-06
2.66132e-12
1.37652e-08
9.93617e-08
2.90281e-06
6.96208e-09
1.4572e-09
3.66805e-07
1.28283e-09
1.41755e-07
3.80084e-07
6.22025e-08
2.73002e-06
5.27224e-06
2.67982e-05
2.05577e-06
1.57409e-06
2.29977e-06
5.51274e-06
3.96468e-05
6.52848e-05
0.000145856
0.000136043
0.000188451
0.000211809
0.00022022
0.000155758
0.000216285
0.000212968
0.000209867
0.000202994
0.00020096
0.000196004
0.000198629
0.000167784
0.000192231
0.000178113
0.000168675
0.000160744
0.000158513
0.000158797
0.000148069
0.000145754
0.000148845
0.00015381
0.000155732
0.000155653
0.000154415
0.000139077
0.000127078
0.000115216
0.00010654
9.97574e-05
0.000100887
9.62174e-05
9.84244e-05
0.000100956
0.000100058
0.000117502
0.000105925
0.000105015
9.66878e-05
0.000119412
8.62731e-05
6.0155e-05
0.000111766
0.000125303
7.57181e-05
7.6031e-05
0.00016814
0.000124044
0.000123194
0.000121731
0.000120992
0.000121639
0.000123142
0.000124817
0.000180184
0.000177646
7.8871e-05
7.91206e-05
7.93115e-05
0.000129746
0.000127155
0.000123084
0.000116872
0.000105437
9.53937e-05
8.51564e-05
7.29274e-05
6.11048e-05
4.97978e-05
4.0019e-05
3.23374e-05
2.58266e-05
2.01966e-05
1.63972e-05
1.40079e-05
1.23235e-05
1.00849e-05
7.9511e-06
1.74837e-13
2.40196e-07
9.18143e-07
6.70016e-07
1.11988e-09
7.36556e-10
1.52193e-09
1.63197e-07
2.31157e-07
5.93419e-07
1.9344e-06
6.95644e-06
4.31862e-05
6.21547e-05
5.78177e-06
2.95167e-06
2.08738e-05
7.37473e-06
2.49653e-05
5.75616e-05
0.000101996
0.000154793
0.000197103
0.000209767
0.000212248
0.000221347
0.00021267
0.000210105
0.000207287
0.000204959
0.000203647
0.000200459
0.000199785
0.000196954
0.000195198
0.000165605
0.00018792
0.000174894
0.000178895
0.000197549
0.000157819
0.000159986
0.000160674
0.00015521
0.000156716
0.000155179
0.000149897
0.000135473
0.000124126
0.000114876
0.000110047
0.000105842
0.000102716
0.000107355
0.000108511
0.000111891
0.000118944
0.000104541
0.000106817
0.000102112
0.000140452
0.000114157
7.50041e-05
9.35844e-05
7.28196e-05
7.42233e-05
7.4793e-05
7.47422e-05
0.000121165
0.000171893
0.000120169
0.000118383
0.000117912
0.000118828
0.000120704
0.000122644
0.000124661
0.000126176
7.82836e-05
0.000177827
0.000128452
0.000128257
0.000125095
0.000120853
0.000114305
0.000103682
9.35637e-05
8.30662e-05
7.1235e-05
9.26367e-05
4.89772e-05
3.93928e-05
3.15649e-05
2.51493e-05
1.98092e-05
1.6162e-05
1.38095e-05
1.21602e-05
9.84596e-06
7.85165e-06
1.70377e-08
1.31218e-07
3.72021e-07
4.04327e-07
3.16082e-09
1.74603e-07
1.41972e-08
4.99688e-07
9.36188e-07
1.52626e-06
3.49151e-06
1.32193e-06
1.18001e-05
0.000223708
1.12056e-05
4.11308e-06
4.14763e-06
8.44064e-06
4.53847e-05
0.00018334
0.000127303
0.000171865
0.000255853
0.000208864
0.000209857
0.000164453
0.000144463
0.000205813
0.000206499
0.000151522
0.000202956
0.000200618
0.000196392
0.000194768
0.000192749
0.000197252
0.000191036
0.000189197
0.000173474
0.000174476
0.000169721
0.000163349
0.000161204
0.000159957
0.000158179
0.00015342
0.000140824
0.000135168
0.000125749
0.000116593
0.000128587
0.000127235
0.00012571
0.000106415
0.000104998
0.000104871
0.000104356
0.000106298
0.00010389
0.000146561
0.000100169
9.46651e-05
5.89045e-05
7.09589e-05
7.25107e-05
7.31394e-05
0.000163083
0.000168427
0.000117753
0.00011781
0.000116569
0.000114912
0.000114696
0.000115883
0.000117846
0.000120343
0.000122559
0.000124536
0.000126267
0.000126547
0.000126947
0.000126623
0.000122973
0.000118548
0.000111505
0.000101796
9.16309e-05
8.09341e-05
6.95455e-05
5.80603e-05
4.81432e-05
6.9901e-05
3.08058e-05
2.44892e-05
1.94107e-05
1.59099e-05
1.35932e-05
1.19829e-05
9.64559e-06
7.7444e-06
1.8669e-08
3.67704e-11
4.48403e-10
6.87682e-09
3.94592e-08
7.1224e-07
1.4876e-07
2.04089e-06
5.27985e-07
9.75782e-07
1.42165e-06
3.03707e-06
1.37576e-05
8.2657e-05
1.23176e-05
5.08969e-06
5.58793e-06
1.10467e-05
4.16732e-05
9.83704e-05
0.000149049
0.000193571
0.000244238
0.000207195
0.000206945
0.000182856
0.000208958
0.000204786
0.000131256
0.000204257
0.000136174
0.000204912
0.000207676
0.000204226
0.000196146
0.000192857
0.000194822
0.00019092
0.000182984
0.000175547
0.000166508
0.000178218
0.000165184
0.00015249
0.000154167
0.000148074
0.000137507
0.000163219
0.00013127
0.000121884
0.000148352
0.000118001
0.000114889
0.000110641
0.000143266
0.000140103
0.000105448
0.000138383
0.000155168
0.000114762
8.46635e-05
9.94701e-05
0.000108312
7.08565e-05
0.000133196
7.17194e-05
0.000163908
0.000112557
0.000113937
0.000113771
0.000112614
0.000111289
0.000111304
0.000112806
0.000114943
0.000117643
0.000120126
0.00012242
0.000177935
0.000124895
0.000125296
0.000174074
0.00012067
0.000116144
0.000108695
9.96788e-05
8.96097e-05
7.87881e-05
6.78452e-05
5.62991e-05
7.91251e-05
3.76996e-05
3.00322e-05
2.38473e-05
1.89922e-05
1.56388e-05
1.33626e-05
1.17118e-05
9.44848e-06
7.63259e-06
4.79887e-11
1.0553e-07
6.40756e-09
9.74423e-07
8.35956e-06
8.41138e-07
9.92971e-07
1.06675e-05
1.6952e-05
3.80318e-05
6.04073e-06
3.89266e-05
1.90422e-05
9.5418e-05
4.19583e-05
7.13436e-06
9.2922e-06
4.52977e-05
0.000102608
0.000219375
0.000165783
0.000263394
0.000215968
0.000211434
0.000204107
0.000202089
0.000200764
0.00020319
0.000195186
0.000197778
0.000192209
0.000201074
0.0002009
0.000127009
0.000193142
0.000189596
0.000185365
0.000181257
0.000140844
0.000170205
0.000168269
0.000160241
0.000154275
0.000147596
0.000146962
0.00014614
0.000145661
0.000145513
0.000132591
0.000133371
0.000136823
0.000137944
0.000124416
0.000150352
0.000152801
0.000105861
0.000102791
0.000180757
0.000117622
8.7256e-05
5.74041e-05
5.69397e-05
0.000108897
7.03996e-05
7.06354e-05
0.00010773
0.000108576
0.000108091
0.000109414
0.000109459
0.000108442
0.000107325
0.000107577
0.000109416
0.000111975
0.00011478
0.000117541
0.000119978
0.000122799
0.000122846
0.000123165
0.000122342
0.000118052
0.000155367
0.00010326
0.000132187
0.000121104
7.65923e-05
6.61612e-05
5.45471e-05
4.57042e-05
3.66517e-05
2.9243e-05
2.32408e-05
1.85594e-05
1.535e-05
1.31187e-05
1.14387e-05
9.25184e-06
7.52155e-06
5.81309e-07
9.50263e-08
1.63086e-07
9.51373e-06
0.000157957
5.7585e-06
2.27481e-05
9.21857e-06
4.12625e-05
1.87554e-05
4.17827e-05
4.10953e-05
2.25213e-05
6.43296e-05
4.24094e-05
1.11779e-05
1.6956e-05
6.02133e-05
7.05357e-05
0.000258553
0.000184794
0.000200371
0.000254222
0.000199986
0.000200414
0.000192277
0.000179528
0.000195205
0.000190599
0.000190821
0.000190882
0.000187039
0.000142871
0.000187266
0.000132904
0.000179488
0.000175068
0.000110651
0.000131649
0.000165293
0.000163085
0.000156829
0.000149514
0.000140662
0.000137901
0.000143535
0.000144815
0.000146812
0.000152611
0.000175986
0.000177707
0.000145973
0.000149616
0.000153425
0.000157103
0.000192138
0.000146307
0.000126901
8.95532e-05
9.85467e-05
8.85993e-05
6.75607e-05
6.85971e-05
6.93945e-05
0.000104701
0.00010378
0.000103676
0.000103414
0.000145832
0.000104958
0.000101527
0.000100791
0.000101257
0.000105836
0.000108786
0.000111804
0.000114604
0.0001173
0.000169447
0.000120516
0.000120914
0.000119884
0.000115383
0.000110729
0.000100441
9.45017e-05
8.45863e-05
7.40837e-05
6.44971e-05
5.28548e-05
7.60756e-05
3.56568e-05
2.84308e-05
2.26328e-05
1.81412e-05
1.50412e-05
1.28591e-05
1.11597e-05
9.05544e-06
7.40121e-06
2.49704e-06
6.66827e-06
2.03943e-06
4.5887e-05
0.000133362
4.17177e-05
1.62364e-05
6.5193e-05
5.59961e-05
3.1638e-05
3.35146e-05
5.74445e-05
3.80732e-05
4.20633e-05
2.50668e-05
4.25768e-05
2.74506e-05
4.31045e-05
7.85404e-05
0.000139933
0.000270141
0.00027012
0.000193558
0.000260155
0.000228319
0.0001997
0.000202186
0.00018099
0.000177612
0.000182675
0.000166458
0.000157809
0.00017679
0.000173907
0.000173234
0.00012271
0.00012068
0.00016974
0.000167621
0.000144021
0.000155472
0.000146074
0.000138741
0.000136478
0.000176247
0.000142344
0.000217124
0.000150148
0.000166062
0.000214838
0.000180238
0.000164805
0.00015162
0.000149522
0.000140677
0.000130655
0.000103511
0.000116242
9.87409e-05
8.8306e-05
0.000108274
0.000115836
6.74144e-05
0.000101521
0.000100632
9.83666e-05
9.74528e-05
9.74522e-05
9.64186e-05
9.70985e-05
9.65949e-05
9.59965e-05
9.67378e-05
9.9007e-05
0.000139363
0.000108036
0.000111129
0.000154608
0.00011701
0.000161614
0.000117915
0.000116483
0.000112125
0.000106882
9.68678e-05
0.000125335
8.12854e-05
7.10248e-05
6.22978e-05
8.30505e-05
4.22465e-05
3.44917e-05
2.74862e-05
2.18993e-05
1.76299e-05
1.46274e-05
1.25255e-05
1.08247e-05
8.81645e-06
7.25144e-06
4.99159e-06
4.01756e-06
7.36449e-06
1.11353e-05
2.38095e-05
1.56948e-05
3.30905e-05
7.39331e-05
5.60039e-05
5.34319e-05
0.000110423
9.93559e-05
0.000101481
5.55905e-05
6.14889e-05
3.63671e-05
4.6347e-05
0.000117705
0.000204909
0.000150531
0.00017248
0.000184868
0.000183063
0.000187016
0.000232272
0.000225428
0.000225803
0.000180529
0.000225486
0.000168754
0.000164798
0.000168022
0.000166465
0.000168287
0.000170759
0.000164037
0.000162411
0.000160513
0.000145914
0.000154457
0.00014256
0.000128637
0.000140538
0.000144229
0.000142149
0.000143083
0.000196507
0.000201144
0.000175449
0.000139549
8.7751e-05
0.000124339
0.000122518
0.00012219
7.56668e-05
7.15832e-05
0.000102407
0.000106748
6.72897e-05
0.000113062
0.000120588
0.000138614
9.59652e-05
9.70899e-05
9.51168e-05
9.14814e-05
8.78379e-05
8.80858e-05
8.9629e-05
9.10662e-05
9.06666e-05
9.03103e-05
9.11943e-05
9.37531e-05
9.72519e-05
0.000103317
0.000106677
0.000109026
0.000112164
0.000113052
0.000113803
0.000112491
0.000108133
9.99513e-05
9.24962e-05
8.65696e-05
7.75542e-05
6.76218e-05
5.91855e-05
4.83226e-05
4.00516e-05
3.28243e-05
2.63782e-05
2.10339e-05
1.70339e-05
1.41311e-05
1.21122e-05
1.0477e-05
8.5348e-06
7.06065e-06
1.67134e-05
1.64444e-06
1.14663e-05
1.4779e-05
1.62103e-05
1.50718e-05
3.11597e-05
5.34093e-05
5.50913e-05
7.36854e-05
0.00024197
0.000107929
9.11849e-05
0.000112688
8.76338e-05
0.000107061
7.897e-05
0.000106247
0.000279369
0.00017282
0.000292739
0.000177722
0.000182803
0.000178408
0.000257844
0.000173402
0.000170217
0.000167471
0.000251428
0.000160895
0.000228157
0.000222228
0.000156341
0.000156862
0.000203137
0.000154184
0.00015844
0.000161634
0.000159616
0.000158333
0.000146368
0.000140028
0.000144559
0.00019252
0.000143379
0.000196143
0.00019051
0.000123355
8.75674e-05
7.55498e-05
7.40631e-05
0.000111332
7.15014e-05
0.000109222
6.96326e-05
0.000106836
0.000106144
0.000112322
6.66599e-05
6.5456e-05
6.39383e-05
9.08074e-05
9.01674e-05
9.10446e-05
0.000123302
8.20423e-05
8.04537e-05
8.11593e-05
0.000116871
0.000119273
8.48409e-05
8.463e-05
8.57564e-05
8.84133e-05
9.18592e-05
9.61102e-05
0.000101705
0.000104156
0.000107222
0.000108512
0.00010927
0.000108297
0.00013837
9.53605e-05
8.81413e-05
8.17026e-05
7.38389e-05
6.43267e-05
5.60208e-05
7.83915e-05
3.7862e-05
3.12762e-05
2.52651e-05
2.01812e-05
1.64268e-05
1.36196e-05
1.16465e-05
1.01296e-05
8.2574e-06
6.85331e-06
1.82747e-05
5.90304e-06
9.46491e-06
1.24978e-05
1.10458e-05
1.08324e-05
2.06913e-05
3.26973e-05
4.18276e-05
7.28207e-05
0.000130761
0.000149011
0.000126751
0.000119161
0.000153262
0.000106984
0.000122528
0.000254213
0.000157411
0.000161692
0.000169108
0.000297885
0.000295089
0.000277587
0.000268939
0.000165367
0.000162224
0.00015864
0.000153147
0.000151877
0.000255549
0.000149213
0.000150535
0.000236998
0.000153356
0.000155788
0.000226544
0.0001548
0.000150904
0.000150521
0.000149696
0.000187236
0.000142616
0.000142429
0.000277258
0.000182079
0.000153084
7.73406e-05
7.57189e-05
7.46036e-05
7.36693e-05
0.000123812
0.000120922
7.03124e-05
6.93271e-05
6.80766e-05
6.70041e-05
6.58956e-05
6.43696e-05
8.96381e-05
8.64935e-05
0.000124173
8.31645e-05
0.000116741
7.86566e-05
7.43963e-05
7.27698e-05
7.37032e-05
7.5741e-05
7.78726e-05
0.00011215
7.87171e-05
7.97884e-05
8.28922e-05
8.65933e-05
9.1103e-05
9.43878e-05
9.65668e-05
0.000101933
0.000141601
0.000104409
0.000103671
9.6761e-05
9.07003e-05
8.36663e-05
7.70989e-05
6.97689e-05
6.10482e-05
5.29482e-05
4.33545e-05
3.57922e-05
2.9777e-05
2.40632e-05
1.93238e-05
1.58065e-05
1.3083e-05
1.11994e-05
9.76901e-06
7.97657e-06
6.63493e-06
1.74758e-05
1.42455e-05
1.49264e-05
1.49171e-05
1.74898e-05
2.65697e-05
3.23968e-05
3.11624e-05
3.71283e-05
7.36249e-05
0.000113194
0.000280043
0.000158603
0.000265683
0.000147453
0.000151728
0.000161186
0.000156825
0.000157681
0.000155819
0.000156804
0.000315112
0.000155494
0.000160752
0.000155648
0.000155998
0.000155242
0.000279207
0.00014933
0.000266461
0.000147991
0.000149524
0.000261142
0.000145764
0.000267491
0.000155027
0.000157264
0.000157563
0.000161261
0.000148875
0.000143639
0.000141359
0.000167086
0.000274233
0.000178837
9.13494e-05
0.00011849
0.000113629
0.000111907
0.000110904
0.000157616
0.000152754
0.000147914
6.86288e-05
0.000145211
6.58754e-05
9.37027e-05
0.000137329
8.71005e-05
8.33031e-05
7.95189e-05
7.54259e-05
7.37278e-05
7.36007e-05
7.01991e-05
6.66889e-05
6.51946e-05
6.63767e-05
6.85049e-05
7.08023e-05
7.23026e-05
7.32744e-05
7.41495e-05
7.71809e-05
8.10634e-05
8.6141e-05
0.000123784
9.14877e-05
9.41808e-05
9.60504e-05
9.68461e-05
9.63992e-05
0.000126479
8.57378e-05
7.8942e-05
7.27774e-05
6.5994e-05
5.76107e-05
5.0012e-05
4.09006e-05
3.38224e-05
2.83182e-05
2.28743e-05
1.84025e-05
1.51674e-05
1.25254e-05
1.07694e-05
9.38503e-06
7.68033e-06
6.40616e-06
1.7356e-05
1.78935e-05
1.80719e-05
2.11801e-05
2.76312e-05
3.42064e-05
4.07541e-05
4.50603e-05
4.2651e-05
5.812e-05
0.000133491
0.000139776
0.000170775
0.000183623
0.000178585
0.000192513
0.000189869
0.000289466
0.000166663
0.000153281
0.000144633
0.000136083
0.000137086
0.000144197
0.000150497
0.000289318
0.00015248
0.000144687
0.00013621
0.00013489
0.000137376
0.000146966
0.000152741
0.00015798
0.000166471
0.000155696
0.000158605
0.000273236
0.000156498
0.000153787
0.000160496
0.000164493
0.000263054
0.000177717
9.39609e-05
0.000112615
0.000149109
0.000101927
0.000101244
0.000101943
0.000103104
0.000100995
9.89009e-05
9.7342e-05
9.37156e-05
8.97132e-05
8.66579e-05
8.34619e-05
8.01456e-05
7.44193e-05
7.03193e-05
6.7545e-05
6.56435e-05
6.48151e-05
9.53268e-05
5.88893e-05
5.82007e-05
5.96191e-05
6.16874e-05
6.3957e-05
6.56898e-05
6.67365e-05
6.81889e-05
7.17567e-05
7.55675e-05
8.06848e-05
8.39837e-05
8.62509e-05
8.88298e-05
9.04942e-05
9.18195e-05
9.15373e-05
8.66703e-05
8.05692e-05
7.44527e-05
6.80407e-05
6.20746e-05
8.76191e-05
4.70569e-05
3.85631e-05
3.19666e-05
2.66759e-05
2.16281e-05
1.75079e-05
1.44125e-05
1.1969e-05
1.03298e-05
9.00736e-06
7.37175e-06
6.15599e-06
1.80373e-05
2.01631e-05
1.88174e-05
2.07712e-05
2.36391e-05
2.31012e-05
2.6843e-05
3.96085e-05
4.74646e-05
4.98635e-05
8.16695e-05
0.000131425
0.00015575
0.000320983
0.000185467
0.000278875
0.000279097
0.000168835
0.000298377
0.00014216
0.000304609
0.000122501
0.000122516
0.000129193
0.000308
0.000311658
0.000145047
0.00028354
0.000130601
0.000126722
0.000133501
0.000160091
0.000249587
0.00016959
0.000178278
0.000192001
0.000286281
0.000160269
0.000157836
0.000258423
0.000169566
0.000246817
0.000169769
0.000124743
0.000104112
9.82659e-05
9.00731e-05
8.66778e-05
8.69646e-05
8.86753e-05
0.000129902
8.99032e-05
8.84538e-05
0.000128094
0.000125227
8.09817e-05
7.61973e-05
7.31922e-05
0.000104606
6.67053e-05
6.22577e-05
5.93603e-05
5.73584e-05
5.62817e-05
5.43135e-05
5.18739e-05
5.15107e-05
5.30679e-05
5.53129e-05
5.79767e-05
9.33114e-05
6.11045e-05
6.26547e-05
6.59765e-05
7.0205e-05
7.507e-05
7.82135e-05
8.11077e-05
8.37284e-05
8.51922e-05
0.000121176
0.000121155
8.13331e-05
7.55362e-05
6.99951e-05
6.37462e-05
5.807e-05
5.12561e-05
4.40596e-05
3.63028e-05
3.01575e-05
2.5145e-05
2.04204e-05
1.66269e-05
1.36759e-05
1.1458e-05
9.87916e-06
8.59168e-06
7.07161e-06
5.93254e-06
1.91358e-05
2.19046e-05
2.03135e-05
1.8766e-05
1.66773e-05
1.28589e-05
1.34905e-05
2.22178e-05
3.64952e-05
4.21048e-05
5.33881e-05
8.10398e-05
0.000129281
0.000149565
0.000161804
0.000168634
0.000159595
0.000143064
0.000133151
0.000121183
0.000107145
9.84644e-05
0.000238023
0.000112004
0.00012403
0.000271046
0.000150526
0.00021521
0.000133482
0.000117376
0.000104435
0.000112866
0.000125981
0.000148122
0.00018377
0.00021029
0.000219853
0.000174085
0.000172755
0.000174119
0.000179779
0.000146885
0.000118332
9.86011e-05
8.644e-05
0.000115435
7.55177e-05
7.29034e-05
7.41028e-05
7.6794e-05
0.000112719
7.57423e-05
7.50198e-05
7.52629e-05
7.29647e-05
6.97596e-05
6.70316e-05
6.4011e-05
6.15966e-05
9.0942e-05
5.40192e-05
5.15046e-05
4.97713e-05
4.88424e-05
4.72401e-05
4.58959e-05
4.58157e-05
4.75252e-05
4.97862e-05
5.20668e-05
5.4139e-05
5.55012e-05
5.74911e-05
6.08913e-05
6.46968e-05
6.95953e-05
7.28518e-05
7.56718e-05
7.82833e-05
7.98125e-05
8.15118e-05
0.000115543
7.61074e-05
7.08055e-05
6.54503e-05
5.97986e-05
5.42836e-05
4.79561e-05
4.13943e-05
3.41492e-05
2.84082e-05
2.36744e-05
1.92666e-05
1.57608e-05
1.29506e-05
1.09406e-05
9.4416e-06
8.17984e-06
6.76434e-06
5.72904e-06
2.04696e-05
2.23869e-05
1.9646e-05
1.56468e-05
1.11312e-05
6.34832e-06
5.53218e-06
9.9987e-06
2.09199e-05
3.11866e-05
3.51612e-05
5.49575e-05
8.47101e-05
0.000113702
0.000126513
0.000131008
0.000278198
0.000251852
0.000106834
0.000205535
7.858e-05
7.49712e-05
8.15388e-05
9.2885e-05
0.000105097
0.00013347
0.000150684
0.00010594
0.000141442
7.1082e-05
6.37684e-05
7.82502e-05
0.000142668
0.000103064
0.000139373
0.000181343
0.000206913
0.000253768
0.000187835
0.000212785
0.00013576
0.000110496
9.14139e-05
0.00011615
7.02899e-05
6.43303e-05
9.49841e-05
5.91525e-05
9.4819e-05
6.42038e-05
9.76114e-05
6.31665e-05
6.31947e-05
6.37438e-05
9.54082e-05
5.9824e-05
5.72151e-05
5.4536e-05
5.21006e-05
4.95536e-05
4.65381e-05
4.45563e-05
4.32295e-05
7.60046e-05
4.11004e-05
4.04281e-05
4.05922e-05
4.22623e-05
4.45888e-05
4.69417e-05
4.91236e-05
5.06417e-05
5.25431e-05
5.58492e-05
5.98648e-05
6.40365e-05
6.73409e-05
7.05554e-05
7.29554e-05
7.43279e-05
7.575e-05
7.5922e-05
0.000104169
6.56769e-05
6.12309e-05
5.56004e-05
5.07785e-05
4.47457e-05
3.88489e-05
3.21553e-05
2.67073e-05
2.22579e-05
1.81652e-05
1.49046e-05
1.23009e-05
1.0416e-05
9.00767e-06
7.77808e-06
6.49172e-06
5.5144e-06
2.18486e-05
2.07148e-05
1.49531e-05
1.05419e-05
6.9358e-06
3.69737e-06
2.78729e-06
4.50244e-06
1.12575e-05
2.02095e-05
2.47746e-05
3.06219e-05
5.19085e-05
8.0063e-05
9.3211e-05
0.000188668
8.86379e-05
7.81644e-05
0.000176638
6.43873e-05
5.46988e-05
5.12429e-05
5.5289e-05
8.74669e-05
6.64122e-05
5.70605e-05
5.49075e-05
7.42769e-05
0.000120843
5.53771e-05
4.51952e-05
4.9082e-05
6.01789e-05
7.87385e-05
0.000113864
0.000186844
0.000153669
0.000157101
0.00014066
0.00016122
0.000100903
0.000115067
7.09211e-05
9.63749e-05
8.91147e-05
4.87395e-05
4.697e-05
4.70238e-05
4.89053e-05
8.62523e-05
5.1456e-05
5.10445e-05
5.17539e-05
5.25695e-05
5.18315e-05
4.99962e-05
4.79581e-05
4.59439e-05
4.39546e-05
4.20672e-05
4.01605e-05
3.85601e-05
3.73894e-05
3.70105e-05
3.58042e-05
3.54067e-05