/*--------------------------------*- C++ -*----------------------------------*\
  =========                 |
  \\      /  F ield         | OpenFOAM: The Open Source CFD Toolbox
   \\    /   O peration     | Website:  https://openfoam.org
    \\  /    A nd           | Version:  6
     \\/     M anipulation  |
\*---------------------------------------------------------------------------*/
FoamFile
{
    version     2.0;
    format      ascii;
    class       volScalarField;
    location    "0.1";
    object      CH3CHO;
}
// * * * * * * * * * * * * * * * * * * * * * * * * * * * * * * * * * * * * * //

dimensions      [0 0 0 0 0 0 0];

internalField   nonuniform List<scalar> 
8000
(
1.63287e-05
8.92371e-05
0.000260468
0.000770892
0.00118384
0.000895207
0.000461371
0.000227026
0.00011659
5.93884e-05
3.05443e-05
2.51453e-05
4.03314e-05
0.000104705
0.000104047
0.000108961
0.000122665
0.00314374
0.000191384
0.000160614
0.000150711
0.000136522
0.000167215
0.000317247
0.000527041
0.000884252
0.00108186
0.00103739
0.00106585
0.00611187
0.00362737
0.0004095
0.000236029
0.000150124
0.000117829
0.000105186
0.000101531
0.000108837
0.00015037
0.000206189
0.000139232
9.76247e-05
8.75664e-05
0.00010055
0.000135857
0.000199619
0.0003352
0.000612283
0.00136377
0.0083302
0.00503083
0.00347291
0.00305369
0.00310201
0.00318601
0.0032907
0.00336997
0.00338968
0.00334793
0.00324214
0.00238249
0.00207521
0.000960831
0.000428618
0.00018653
1.73878e-05
0.000139419
8.80567e-05
8.59461e-05
8.41228e-05
0.000178672
7.63462e-05
7.70912e-05
0.000114998
0.000117436
7.95303e-05
7.94131e-05
8.12701e-05
8.42308e-05
8.52857e-05
8.27857e-05
8.21915e-05
7.81217e-05
0.000110449
9.26669e-05
7.41288e-05
5.94443e-05
4.92642e-05
0.000236468
2.97379e-05
2.12439e-05
1.55148e-05
1.20719e-05
9.62775e-06
5.95536e-06
4.49614e-06
3.71585e-06
3.18551e-06
2.90669e-06
1.95227e-06
1.59478e-05
9.27576e-05
0.00026872
0.000821679
0.00141629
0.000892915
0.000434425
0.000215486
0.000110608
5.53683e-05
2.87026e-05
2.7301e-05
5.45612e-05
0.000151321
0.000147844
0.000125452
0.000136221
0.000159282
0.000166139
0.000168399
0.000157297
0.000143401
0.000177106
0.00033496
0.000555054
0.000971912
0.00110697
0.00103839
0.000966675
0.00123608
0.000540979
0.000338613
0.000217897
0.000152761
0.000132106
0.000123689
0.000119697
0.000125667
0.000173388
0.00143309
0.000179235
0.000111534
9.73755e-05
0.00011042
0.00014675
0.000213893
0.000351212
0.000618618
0.00131169
0.00185501
0.00274552
0.00294999
0.00307212
0.00312878
0.00320298
0.00329379
0.00335961
0.00337012
0.00332156
0.00321598
0.00235613
0.00203921
0.000924082
0.000491537
5.99089e-05
1.71621e-05
0.000138661
8.78385e-05
8.57566e-05
8.38173e-05
8.21253e-05
7.59282e-05
7.69982e-05
0.000114296
0.000116853
7.94489e-05
7.92148e-05
8.11218e-05
8.40773e-05
8.52878e-05
8.26433e-05
8.21501e-05
7.79325e-05
0.000110097
9.2754e-05
7.39582e-05
5.93031e-05
4.91669e-05
4.16443e-05
2.96485e-05
2.12125e-05
1.54869e-05
1.20541e-05
9.62807e-06
5.9423e-06
4.48835e-06
3.71052e-06
3.18139e-06
2.9092e-06
1.94933e-06
1.79665e-05
0.000109037
0.000350629
0.00073569
0.000946025
0.000622458
0.000328252
0.000307785
0.000274144
5.80668e-05
0.000126924
2.92858e-05
6.93502e-05
0.000217737
0.000244236
0.000165062
0.000137245
0.000156156
0.00020015
0.000812388
0.000196119
0.000162758
0.000200132
0.000372025
0.000608015
0.00123319
0.00123002
0.00104204
0.000848735
0.000657679
0.000431451
0.000287613
0.000206141
0.000164369
0.000168877
0.000178882
0.000167466
0.000168693
0.000177279
0.000190967
0.000148786
0.000122685
0.000115952
0.000130447
0.000169804
0.000245178
0.000388599
0.000679071
0.00128893
0.00177242
0.0020646
0.00302961
0.0031686
0.00319052
0.00323053
0.00329294
0.00333709
0.00332931
0.00326744
0.00282555
0.00229962
0.00195779
0.000846241
0.00035512
6.56249e-05
1.66821e-05
8.87249e-05
8.73612e-05
8.53442e-05
8.31694e-05
8.08594e-05
7.51577e-05
0.000372202
0.000112731
0.000115602
0.000281501
7.87799e-05
8.08013e-05
8.37162e-05
0.000155776
8.23256e-05
8.20634e-05
7.74995e-05
0.000109394
0.000348097
7.35769e-05
5.90063e-05
4.89595e-05
4.05926e-05
2.94799e-05
2.11444e-05
1.54259e-05
0.000294341
0.000311102
5.91335e-06
4.47138e-06
3.69878e-06
3.1723e-06
0.000426499
1.9428e-06
2.38028e-05
0.000131171
0.000513208
0.000708167
0.000596424
0.000404633
0.000224168
0.000125107
6.69611e-05
3.14663e-05
1.8939e-05
2.1154e-05
4.8545e-05
0.000867511
0.00303989
0.000191082
0.000127609
0.000141063
0.000174435
0.000197196
0.000168653
0.000159526
0.0002277
0.000389158
0.000663981
0.00458571
0.00143081
0.00104215
0.000777342
0.000547165
0.000383548
0.000270391
0.000211883
0.000183689
0.000217141
0.00133947
0.000244918
0.000853063
0.000225872
0.000208415
0.000175266
0.000157649
0.000147107
0.000158895
0.000199135
0.00030225
0.000467521
0.0007767
0.00132635
0.00163768
0.00210007
0.00313914
0.00549839
0.00324744
0.00324182
0.00327627
0.0033015
0.00327397
0.0031914
0.00238405
0.00221574
0.001274
0.000735639
0.000212352
7.49184e-05
1.61513e-05
8.74924e-05
8.66422e-05
8.47779e-05
8.21181e-05
0.000260618
0.000116075
0.000116545
0.000110317
0.000113754
7.76098e-05
7.81257e-05
8.03287e-05
8.31774e-05
8.40648e-05
8.18288e-05
8.19438e-05
7.67989e-05
0.000108494
9.02163e-05
7.29768e-05
5.85614e-05
4.86537e-05
3.97821e-05
2.92476e-05
2.1042e-05
1.53347e-05
1.17935e-05
9.206e-06
5.86764e-06
4.44585e-06
3.68094e-06
3.15842e-06
2.78746e-06
1.93227e-06
2.14907e-05
0.000154745
0.00435063
0.000888117
0.000449709
0.000271731
0.000146657
7.73225e-05
3.84439e-05
1.87343e-05
6.9056e-05
6.70357e-05
7.47039e-05
0.000163739
0.00021281
0.00014575
0.000110139
0.000129861
0.00015984
0.000165159
0.000149571
0.000168453
0.000284856
0.000467427
0.000732621
0.00125827
0.00121572
0.00100024
0.00072915
0.000527742
0.000379458
0.000285497
0.000238046
0.00020886
0.000212105
0.000219576
0.000214763
0.000227448
0.000253082
0.00157604
0.00022924
0.000211906
0.000189864
0.000189438
0.000242108
0.000371423
0.000567855
0.000861093
0.00139665
0.00187211
0.00212666
0.00309849
0.00366909
0.00321137
0.00321442
0.00323897
0.00325833
0.00320827
0.00275784
0.00229169
0.00209927
0.00112023
0.000602889
7.08204e-05
4.31155e-05
0.000139896
8.62523e-05
8.55716e-05
0.000155462
8.08637e-05
7.83889e-05
0.000112324
0.000110591
0.000107284
0.000111411
7.58718e-05
7.7297e-05
7.97085e-05
8.23599e-05
8.28868e-05
8.12039e-05
0.000233648
7.58093e-05
0.000403747
8.82942e-05
7.22092e-05
5.79711e-05
4.82559e-05
3.89485e-05
2.89573e-05
2.09064e-05
1.52156e-05
1.15988e-05
8.87837e-06
5.80962e-06
4.41221e-06
3.65701e-06
3.13993e-06
2.68755e-06
1.91909e-06
1.7075e-05
0.000546512
0.00108351
0.000499827
0.000272578
0.000173247
9.39747e-05
0.000190586
2.39095e-05
1.45075e-05
1.29704e-05
1.63137e-05
2.49113e-05
0.000120423
0.000139129
0.000265117
0.000364486
0.000334043
0.000526099
0.000153689
0.000148824
0.00020195
0.00155985
0.00184705
0.000795816
0.00113341
0.00110618
0.000993426
0.000780771
0.000550447
0.00041604
0.000331735
0.000272416
0.000255339
0.000242432
0.000234689
0.000233257
0.000246874
0.000271587
0.000275037
0.000251988
0.000268443
0.00106925
0.000231705
0.000297513
0.000472148
0.000781635
0.000997698
0.00144561
0.00511116
0.00212383
0.00304408
0.00548064
0.00317734
0.00316756
0.00318456
0.00320177
0.0031123
0.00230318
0.00216477
0.00193674
0.000938638
0.000460641
6.51335e-05
4.51713e-05
0.000135886
8.49995e-05
8.39672e-05
8.26027e-05
7.9454e-05
7.67851e-05
0.000107963
0.000105259
0.000103937
0.000108683
7.41721e-05
7.61447e-05
7.89522e-05
8.14101e-05
8.18041e-05
8.04726e-05
0.000250979
0.000117226
0.000103244
8.66922e-05
7.12894e-05
5.72429e-05
4.77848e-05
3.81472e-05
2.8616e-05
2.07385e-05
1.50711e-05
1.14123e-05
0.000329724
5.74089e-06
4.37625e-06
3.62679e-06
3.11759e-06
2.60545e-06
1.90368e-06
1.2551e-05
0.000121604
0.000343664
0.000371351
0.000157785
0.000110594
0.000242427
0.000221723
9.59996e-05
1.54104e-05
1.54287e-05
2.17226e-05
9.66728e-05
8.70913e-05
0.000100193
9.96472e-05
0.000124626
0.000144316
0.000152322
0.000150781
0.000593405
0.000252222
0.000375867
0.000560488
0.000817127
0.00420598
0.00413092
0.00100625
0.00372441
0.000644103
0.000490492
0.00039915
0.000352585
0.000314568
0.000294785
0.000279689
0.000286515
0.000277448
0.000295883
0.000334528
0.00123593
0.000269386
0.00024444
0.000263722
0.000341806
0.000559336
0.00437171
0.00116317
0.00143738
0.00166283
0.00204116
0.00242414
0.00542272
0.00311566
0.0030977
0.00309731
0.00310503
0.00520034
0.00217999
0.00200133
0.00170642
0.000741184
0.000392151
0.000179483
3.49075e-05
8.50793e-05
8.33873e-05
8.2211e-05
8.08092e-05
7.79606e-05
7.49873e-05
0.000103284
0.000100425
0.000100293
0.000105637
0.000111965
7.47998e-05
7.80784e-05
8.03781e-05
0.000234574
7.96328e-05
7.91899e-05
0.000113123
9.94797e-05
8.52856e-05
7.02241e-05
5.63808e-05
0.000227186
3.73703e-05
2.82401e-05
2.05392e-05
1.49044e-05
1.12257e-05
8.31655e-06
5.66103e-06
4.33317e-06
3.59067e-06
3.09206e-06
2.53651e-06
1.88621e-06
3.41353e-05
0.000244143
0.000382354
0.000138149
9.40088e-05
6.4419e-05
0.000213692
3.26373e-05
1.81738e-05
1.72501e-05
6.54011e-05
0.000105295
7.07136e-05
0.000192715
9.18084e-05
0.00010633
0.000134943
0.000150047
0.000149283
0.000147338
0.000170452
0.00122033
0.000443665
0.00218471
0.00095447
0.00116268
0.00109784
0.00102191
0.000889642
0.000694061
0.00304947
0.00050502
0.000461586
0.000418371
0.000390716
0.0013907
0.000354757
0.000349395
0.000359404
0.000356613
0.000314359
0.000272465
0.000263485
0.000301503
0.000379985
0.000560867
0.000826766
0.0010018
0.00139544
0.00158032
0.00195671
0.00214141
0.00531511
0.00269777
0.00268379
0.00268071
0.00267569
0.00222592
0.00202125
0.00126385
0.000957092
0.0010794
0.00013564
7.5764e-05
1.53521e-05
8.29762e-05
8.15585e-05
8.01981e-05
7.89562e-05
0.000341008
0.000400061
9.83532e-05
9.56031e-05
9.6402e-05
0.00039648
0.000107283
0.000114537
7.70742e-05
7.93117e-05
0.000254173
7.87148e-05
7.77919e-05
0.000108731
9.60118e-05
0.00031793
6.903e-05
5.539e-05
4.62166e-05
3.6596e-05
2.78245e-05
2.03124e-05
1.47155e-05
1.10389e-05
8.05534e-06
5.57222e-06
4.28338e-06
3.54826e-06
3.06224e-06
2.47705e-06
1.86657e-06
6.60309e-06
6.54479e-05
0.000261194
0.000219542
5.2907e-05
3.15657e-05
2.65221e-05
1.89141e-05
1.81912e-05
2.39864e-05
9.39913e-05
0.00017673
0.000343005
0.000127808
0.000317098
0.000331129
0.000553907
0.000165573
0.000707677
0.000156279
0.000180974
0.000267945
0.000383208
0.000583242
0.00405776
0.00444574
0.00111377
0.00105356
0.00405052
0.000779361
0.000680853
0.000644496
0.000662402
0.000620892
0.00054062
0.000490755
0.00215626
0.000443617
0.000459803
0.002096
0.00035413
0.000314996
0.000315513
0.00035317
0.000422019
0.000564609
0.000790138
0.000979454
0.00136353
0.00151762
0.00165298
0.00203297
0.00216402
0.00224562
0.00513652
0.00223534
0.00223354
0.00207287
0.0018247
0.00103272
0.00151457
0.000589654
6.77125e-05
3.54718e-05
0.000129566
8.1252e-05
7.96656e-05
7.75802e-05
0.000274942
7.32922e-05
0.000104274
9.30139e-05
9.08041e-05
9.23291e-05
9.76716e-05
0.000102681
0.000110202
7.57064e-05
0.000286091
7.80903e-05
0.000327677
0.000367591
0.000104357
9.26307e-05
0.000313689
6.76107e-05
5.4285e-05
4.51365e-05
3.58015e-05
2.73725e-05
2.00584e-05
1.45069e-05
1.07777e-05
7.82564e-06
5.47498e-06
4.22633e-06
3.50197e-06
3.029e-06
2.42411e-06
1.84464e-06
2.70661e-06
3.16087e-05
5.8102e-05
0.000152112
2.50862e-05
1.72898e-05
6.15719e-05
1.77476e-05
6.12145e-05
0.000121202
6.50178e-05
0.00028218
0.000183005
0.000694972
0.00016754
0.000160657
0.00017305
0.000185075
0.000735952
0.000523368
0.000608768
0.000286169
0.000376915
0.00055897
0.000880602
0.00426917
0.0010946
0.00104578
0.000986186
0.000861964
0.000820745
0.000826528
0.00109117
0.00408628
0.00358408
0.00074792
0.000666259
0.000611671
0.000576537
0.00051043
0.000418509
0.000376549
0.000380559
0.000420667
0.000506755
0.000615248
0.000789448
0.000972365
0.00135122
0.00146651
0.00156312
0.0016419
0.00202481
0.00212277
0.00211831
0.0021074
0.00492925
0.00438274
0.00108076
0.000786374
0.000501366
0.000170508
5.93135e-05
1.53283e-05
7.85163e-05
0.000141304
7.72434e-05
7.49742e-05
0.00035696
0.000105684
9.58189e-05
8.76009e-05
8.62866e-05
8.81552e-05
9.28741e-05
9.81785e-05
0.000410663
0.000385113
7.67031e-05
7.64612e-05
7.57569e-05
0.000115683
0.000100147
8.92705e-05
7.84382e-05
6.37141e-05
5.30779e-05
4.40197e-05
3.49856e-05
2.68848e-05
1.97801e-05
1.42896e-05
1.05167e-05
7.60832e-06
5.3805e-06
4.16216e-06
3.45378e-06
2.99099e-06
2.37648e-06
1.82027e-06
4.18743e-07
4.31214e-05
9.77674e-05
9.28275e-05
1.6406e-05
1.55611e-05
1.8463e-05
6.0371e-05
8.76622e-05
0.000139898
0.000257603
0.000529141
0.000642118
0.000495184
0.000196286
0.000180982
0.00082113
0.000182966
0.00018973
0.000208757
0.000241679
0.000313236
0.000412322
0.000555851
0.000779773
0.00107784
0.00109764
0.00105004
0.00102516
0.000986795
0.000959026
0.000987017
0.0011168
0.00108906
0.00102749
0.00411906
0.000991696
0.00396455
0.000805927
0.00348372
0.000552012
0.00047923
0.000480627
0.000538851
0.000603276
0.000685879
0.00079631
0.000957565
0.00463089
0.00141557
0.00146148
0.0015052
0.00153239
0.0019897
0.00483999
0.00194074
0.00425744
0.00111766
0.000827596
0.000551252
0.000376232
6.79694e-05
4.13785e-05
0.000124255
7.80415e-05
7.67297e-05
7.4764e-05
7.18361e-05
0.000107041
0.000394526
8.82402e-05
8.26344e-05
8.18878e-05
8.41017e-05
8.82655e-05
9.37518e-05
0.00010084
0.000110745
7.4911e-05
0.000381585
0.000115217
0.000108998
9.59436e-05
8.60554e-05
7.51979e-05
6.20598e-05
5.1784e-05
4.28554e-05
3.41563e-05
0.000243927
1.94777e-05
1.40697e-05
1.02577e-05
7.40144e-06
5.28852e-06
4.09303e-06
3.39944e-06
2.94847e-06
2.31296e-06
1.79402e-06
4.90014e-06
3.77556e-05
6.02543e-05
6.73437e-05
2.27088e-05
7.24504e-05
3.73611e-05
0.00011824
0.000164406
0.000206302
0.000322144
0.000180225
0.00023595
0.00102868
0.000223028
0.000195098
0.000185511
0.000175412
0.000210876
0.000846252
0.000269066
0.000334154
0.00167134
0.0005799
0.000751584
0.00417041
0.00440133
0.00106486
0.00116335
0.00432147
0.00114258
0.00113509
0.00115076
0.00112606
0.00109317
0.00122054
0.00113659
0.00120313
0.00401097
0.000855491
0.000717523
0.000623708
0.000617041
0.000695028
0.000766356
0.000764967
0.000794517
0.00090574
0.00107488
0.00133617
0.00458664
0.00460171
0.00461997
0.00136661
0.00129997
0.00121203
0.00107101
0.000844364
0.000582468
0.000433073
6.35175e-05
2.82501e-05
1.44942e-05
7.68448e-05
7.6094e-05
7.3641e-05
0.000365279
0.000404839
9.58708e-05
8.87343e-05
8.17038e-05
7.77575e-05
7.75229e-05
8.00084e-05
8.40554e-05
8.93225e-05
9.59221e-05
0.000104541
0.000114314
0.000111771
0.00010909
0.000103169
9.17924e-05
8.28096e-05
7.22996e-05
6.03334e-05
5.0416e-05
4.16577e-05
3.33285e-05
2.5548e-05
1.91662e-05
0.000297461
1.00023e-05
7.20584e-06
5.19432e-06
4.01845e-06
3.34081e-06
2.90164e-06
2.26195e-06
1.76525e-06
5.42185e-06
8.9393e-06
1.5539e-05
2.95733e-05
5.65057e-05
0.000125335
8.55455e-05
0.000223848
0.000125147
0.000148612
0.000180528
0.000232656
0.000260229
0.000364766
0.000239264
0.000207368
0.000191992
0.000174937
0.00019308
0.000234451
0.000291352
0.000391083
0.00242619
0.000603123
0.000734058
0.00386726
0.00102876
0.00101742
0.00455938
0.00127707
0.00450955
0.00132003
0.001422
0.00140791
0.00127264
0.00125886
0.00134816
0.0013418
0.00112771
0.00101025
0.00414942
0.00395329
0.00078825
0.000834085
0.004287
0.000785586
0.000778067
0.00418277
0.000824509
0.00118607
0.00422957
0.00112974
0.00111261
0.00111637
0.00357902
0.00277094
0.000795934
0.00114344
0.000527399
0.000133688
5.09402e-05
3.83221e-05
7.86572e-05
7.53181e-05
0.0002178
7.02532e-05
0.000398849
9.19827e-05
8.64633e-05
8.09565e-05
7.58555e-05
7.3052e-05
7.32649e-05
7.59015e-05
7.99473e-05
8.51389e-05
9.12193e-05
9.88408e-05
0.000406152
0.000105384
0.000103246
0.000385375
8.7788e-05
7.9568e-05
6.95174e-05
5.86064e-05
4.89964e-05
4.04365e-05
3.25017e-05
2.47314e-05
0.00027188
1.34846e-05
9.74352e-06
7.0214e-06
5.09403e-06
3.93703e-06
3.27903e-06
2.82633e-06
2.21106e-06
1.73591e-06
2.91224e-05
3.15626e-05
3.50918e-05
0.000171721
0.000440003
0.000143851
0.000145369
0.000546991
0.000685399
0.000816867
0.000257603
0.000857457
0.000295538
0.000314411
0.000730922
0.000227605
0.000207198
0.000609361
0.000419246
0.00100801
0.000293328
0.00152974
0.000638574
0.000615177
0.000687691
0.000799346
0.000897839
0.000947466
0.00102899
0.00111716
0.00117672
0.00129857
0.00144384
0.00460209
0.00142317
0.00141052
0.00142125
0.00142538
0.00446245
0.00104423
0.000986948
0.000876042
0.000860098
0.000955033
0.00437014
0.000761184
0.000704461
0.000669079
0.000638141
0.000679499
0.000610148
0.000594478
0.00058615
0.00260447
0.00248711
0.000671644
0.000545702
0.000667996
0.000151744
6.02669e-05
1.21033e-05
1.30218e-05
9.79509e-05
7.34082e-05
7.06465e-05
9.89385e-05
9.11105e-05
8.27496e-05
7.88769e-05
7.43139e-05
7.06405e-05
6.87592e-05
6.93158e-05
7.19859e-05
7.59277e-05
8.10492e-05
8.66741e-05
9.33664e-05
0.000102186
9.96127e-05
9.79524e-05
9.31144e-05
8.40167e-05
0.000312262
6.45488e-05
0.00024034
0.000233058
3.91688e-05
3.166e-05
2.39009e-05
1.82016e-05
1.31091e-05
9.47928e-06
6.85333e-06
4.98916e-06
3.84903e-06
3.21305e-06
2.75066e-06
2.15936e-06
1.70834e-06
0.00010697
0.000172508
0.000125659
0.000649228
0.000560322
0.000189601
0.000785187
0.00021934
0.000694089
0.000296944
0.000677607
0.0007237
0.000301472
0.000321907
0.000530383
0.000244937
0.000223233
0.000425575
0.000209185
0.00122258
0.000317406
0.000411605
0.00224757
0.00052934
0.000641851
0.000721072
0.00391465
0.000829973
0.000859204
0.000959293
0.00109305
0.00111285
0.00443336
0.0012853
0.00454276
0.00146152
0.00148266
0.00476967
0.00455537
0.00105426
0.00100471
0.000988205
0.000974648
0.000979132
0.000817908
0.000654891
0.000580978
0.000542894
0.000566418
0.00236296
0.000708776
0.000505302
0.000531289
0.00057036
0.000576895
0.000779817
0.000417931
0.000265936
6.94608e-05
3.68262e-05
0.000114672
7.17813e-05
7.19544e-05
7.06786e-05
0.000102244
8.83455e-05
8.08851e-05
7.48432e-05
0.000324061
6.8676e-05
6.36367e-05
6.23174e-05
6.32148e-05
6.82362e-05
7.21515e-05
7.70033e-05
8.24874e-05
8.81436e-05
0.000387526
9.41566e-05
9.2788e-05
8.82672e-05
8.03239e-05
7.2975e-05
6.18004e-05
5.48195e-05
4.60604e-05
3.79258e-05
3.08053e-05
2.30875e-05
0.000286329
1.27573e-05
9.21331e-06
6.68642e-06
4.89695e-06
3.76986e-06
3.14112e-06
2.67286e-06
2.10695e-06
1.67826e-06
1.27791e-05
0.000367386
0.000268244
0.000971927
0.000327188
0.00070606
0.000189204
0.000438318
0.000473575
0.000243609
0.000255807
0.000428944
0.000298505
0.000324999
0.000295403
0.000670098
0.000215293
0.000192184
0.000195001
0.000235137
0.000897643
0.00115061
0.000392175
0.00219368
0.00295793
0.00365774
0.00361916
0.000657092
0.000673891
0.000811194
0.00414631
0.00424575
0.000935
0.000937245
0.0010575
0.00464574
0.00466634
0.00139692
0.00121042
0.00440429
0.00102782
0.00104081
0.00446565
0.00085319
0.00395661
0.000535265
0.00279363
0.000444967
0.000542837
0.00109224
0.000637344
0.000548998
0.000455825
0.000435146
0.000356554
0.000285812
0.000134419
5.11454e-05
3.87438e-05
0.000112451
0.000113032
0.000164406
6.89513e-05
0.000104649
8.83388e-05
7.74148e-05
7.08644e-05
6.68004e-05
6.2929e-05
6.03124e-05
5.83877e-05
5.77215e-05
5.87868e-05
6.16375e-05
0.000262434
7.23649e-05
7.76678e-05
0.000332612
8.84126e-05
0.000356102
8.69339e-05
8.31792e-05
7.60301e-05
6.9106e-05
5.86937e-05
0.000240016
4.41262e-05
3.6412e-05
2.977e-05
0.000271992
1.67168e-05
1.23436e-05
8.91726e-06
6.48298e-06
4.78278e-06
3.69486e-06
3.04729e-06
2.57833e-06
2.04202e-06
1.64225e-06
5.87349e-06
2.7849e-05
0.000240001
0.000330468
0.000272776
0.000191189
0.000157879
0.000194115
0.000196111
0.000203795
0.000369091
0.000357136
0.000340642
0.00030992
0.000392199
0.000237865
0.000203809
0.000415149
0.0007909
0.000223681
0.000235106
0.000268881
0.000300936
0.000393867
0.00286378
0.00300397
0.00298389
0.000545738
0.00296264
0.000583612
0.000625471
0.00066094
0.000673225
0.000735722
0.000817626
0.000877875
0.000890852
0.000909416
0.00438075
0.00102233
0.00441756
0.00458792
0.00444526
0.000756731
0.000536546
0.000422044
0.000409164
0.000384975
0.000341739
0.000265868
7.21741e-05
6.51652e-05
5.9709e-05
5.69355e-05
3.63592e-05
2.75915e-05
3.96322e-05
8.23819e-05
7.13618e-05
0.000147519
0.00020564
0.000328711
9.8334e-05
8.7632e-05
7.57832e-05
6.69427e-05
5.9745e-05
5.69791e-05
5.57099e-05
5.45161e-05
5.32826e-05
5.29548e-05
5.42172e-05
5.69765e-05
6.06686e-05
6.73782e-05
7.20317e-05
7.61501e-05
8.0868e-05
8.11619e-05
8.08785e-05
7.76533e-05
7.14472e-05
6.2606e-05
5.5361e-05
4.91572e-05
4.18859e-05
3.46225e-05
2.82859e-05
2.10091e-05
1.57437e-05
1.17304e-05
8.56654e-06
6.24045e-06
4.64899e-06
3.60708e-06
2.93032e-06
2.48404e-06
1.96452e-06
1.5957e-06
1.52462e-05
8.60346e-06
8.8978e-05
0.000216604
0.000183742
9.29965e-05
6.20302e-05
8.01713e-05
0.000109732
0.000149749
0.000894639
0.000256217
0.000275652
0.00034078
0.000356791
0.000386302
0.000211003
0.000203874
0.00133128
0.000232414
0.00120017
0.000226722
0.000258574
0.000334047
0.00223362
0.000406829
0.000389378
0.000393739
0.00221689
0.00042931
0.00284919
0.00305723
0.000511218
0.000614555
0.00357426
0.000584993
0.000636547
0.000712729
0.000829418
0.00424347
0.000834199
0.000818599
0.000746891
0.00372761
0.00043004
0.000392242
0.000342591
0.000191732
0.000107452
8.13321e-05
8.03444e-05
7.84727e-05
7.80721e-05
8.02604e-05
7.50127e-05
8.82013e-05
9.23123e-05
0.000137675
6.9281e-05
6.70488e-05
6.43743e-05
9.21625e-05
8.1956e-05
7.43231e-05
0.000291834
5.65553e-05
5.23377e-05
5.03035e-05
0.000256237
0.00025132
4.85374e-05
4.84685e-05
4.97612e-05
5.25903e-05
5.61014e-05
6.03856e-05
6.68046e-05
7.03437e-05
7.40422e-05
7.48352e-05
7.47786e-05
7.23963e-05
0.000266511
5.84984e-05
5.20706e-05
4.62974e-05
3.96631e-05
3.28332e-05
2.67276e-05
0.000293477
1.48534e-05
1.11454e-05
8.21725e-06
6.00168e-06
4.51064e-06
3.51238e-06
2.84185e-06
2.38946e-06
1.89082e-06
1.54405e-06
1.77994e-05
1.39029e-05
4.52222e-05
7.61328e-05
5.91287e-05
2.3576e-05
1.19963e-05
6.28517e-06
2.09718e-05
6.47054e-05
0.000152804
0.000231681
0.00026461
0.000297259
0.000467236
0.000251788
0.000234489
0.00122674
0.000215239
0.000190804
0.000192818
0.00138864
0.00153739
0.00155301
0.0017656
0.000302963
0.000285459
0.000273334
0.000250022
0.000278854
0.00180563
0.000288789
0.000325342
0.0025787
0.000372231
0.000398087
0.00296337
0.000512991
0.00056625
0.000627055
0.000657037
0.00380436
0.000520699
0.000415583
0.00103953
0.000413869
0.000244477
7.63473e-05
7.50559e-05
7.50204e-05
7.59039e-05
0.000157344
0.000150604
7.37633e-05
7.24415e-05
7.10151e-05
6.96976e-05
6.74678e-05
6.4798e-05
9.4877e-05
8.55426e-05
0.000334934
6.93588e-05
0.000289946
5.4991e-05
4.92238e-05
4.58938e-05
4.45695e-05
4.43482e-05
4.44085e-05
0.000243644
4.43969e-05
4.57377e-05
4.8414e-05
5.17811e-05
5.61273e-05
5.97175e-05
6.29654e-05
6.81479e-05
0.000297092
6.93306e-05
6.76191e-05
6.05108e-05
5.48917e-05
4.88923e-05
4.34752e-05
3.7552e-05
3.10681e-05
2.51025e-05
1.86796e-05
1.39984e-05
1.05753e-05
7.83992e-06
5.76428e-06
4.3719e-06
3.40653e-06
2.76551e-06
2.29058e-06
1.81947e-06
1.48931e-06
1.8219e-05
1.79359e-05
4.41022e-05
6.28943e-05
6.58657e-05
7.65677e-05
7.11494e-05
3.83763e-05
1.18198e-05
1.13706e-05
6.09176e-05
0.000949807
0.000244855
0.00112509
0.000292424
0.000282141
0.000269044
0.000220375
0.000190292
0.000162834
0.000152455
0.00173496
0.000156526
0.000189463
0.000210126
0.000217347
0.000227659
0.00134831
0.000155302
0.00112468
0.00015481
0.000155521
0.00106231
0.000212847
0.0015156
0.000278135
0.000340891
0.000381438
0.000438771
0.00047177
0.000474943
0.000434123
0.000384251
0.000993796
0.00030147
0.000105371
0.000110036
9.9566e-05
9.82153e-05
0.00010045
0.000366196
0.000350913
0.000334056
6.90998e-05
0.000342963
6.63143e-05
0.000103247
0.000370893
8.65017e-05
7.92263e-05
7.17947e-05
6.35699e-05
5.74972e-05
5.29615e-05
4.73949e-05
4.27091e-05
4.0015e-05
3.92125e-05
3.92847e-05
3.96517e-05
3.99825e-05
4.04772e-05
4.17758e-05
4.44947e-05
4.77625e-05
5.20189e-05
0.000250992
5.80251e-05
6.06027e-05
6.18723e-05
6.20957e-05
6.07398e-05
0.000253936
5.11822e-05
4.59531e-05
4.07387e-05
3.54401e-05
2.93076e-05
2.35253e-05
1.74642e-05
1.31697e-05
1.00585e-05
7.45965e-06
5.5133e-06
4.23156e-06
3.2919e-06
2.69448e-06
2.23075e-06
1.74519e-06
1.43063e-06
1.83105e-05
1.81584e-05
3.17862e-05
5.95917e-05
7.91801e-05
8.73759e-05
0.000100406
0.000100426
5.11285e-05
1.37209e-05
3.63183e-05
8.26777e-05
0.000192663
0.000274067
0.000285324
0.000329043
0.000310586
0.00133617
0.000193747
0.000144101
0.000116607
9.976e-05
0.00010347
0.000125312
0.000145797
0.00147505
0.00014203
0.000112172
9.16463e-05
9.05173e-05
8.80805e-05
9.51426e-05
0.000106574
0.00012088
0.00014583
0.000199146
0.000253519
0.00195358
0.00032976
0.000360959
0.000389626
0.000344895
0.000954156
0.000286187
0.000109295
9.78208e-05
0.00032021
7.87983e-05
7.79999e-05
8.03684e-05
8.50941e-05
8.74117e-05
8.92858e-05
9.12917e-05
8.97635e-05
8.67826e-05
8.29216e-05
7.79589e-05
7.25208e-05
6.46748e-05
5.88161e-05
5.36242e-05
4.89526e-05
4.5158e-05
0.000289088
3.66953e-05
3.4507e-05
3.41528e-05
3.45337e-05
3.52591e-05
3.58853e-05
3.65739e-05
3.79857e-05
4.06679e-05
4.39385e-05
4.80403e-05
5.11057e-05
5.36449e-05
5.59097e-05
5.69132e-05
5.743e-05
5.65519e-05
5.25168e-05
4.77772e-05
4.3053e-05
3.82018e-05
3.3157e-05
0.000285319
2.20612e-05
1.63749e-05
1.23638e-05
9.4624e-06
7.0495e-06
5.26488e-06
4.05412e-06
3.17448e-06
2.61619e-06
2.17337e-06
1.68024e-06
1.36605e-06
1.83315e-05
1.80207e-05
2.10291e-05
3.54891e-05
4.53072e-05
4.2913e-05
5.61566e-05
9.34824e-05
9.77562e-05
4.10098e-05
1.43686e-05
4.29992e-05
0.000122985
0.00211163
0.000267994
0.00140389
0.00131815
0.000211296
0.00143696
0.000114474
0.00159046
7.05256e-05
6.92698e-05
8.52747e-05
0.00179241
0.00178493
9.99679e-05
0.000717835
6.29831e-05
5.93552e-05
6.54378e-05
7.64339e-05
0.000414048
9.03473e-05
0.000109883
0.000147361
0.00115788
0.000242172
0.000272273
0.00158168
0.000331195
0.000860937
0.000261541
0.000104326
8.72655e-05
7.54263e-05
6.52362e-05
6.12033e-05
6.11308e-05
6.35761e-05
0.000308551
6.96396e-05
7.14284e-05
0.000333463
0.000332471
7.12022e-05
6.65974e-05
6.27232e-05
0.000287701
5.43407e-05
4.93974e-05
4.49706e-05
4.11294e-05
3.79542e-05
3.4499e-05
3.11704e-05
2.95598e-05
2.95623e-05
3.01897e-05
3.12566e-05
0.000266698
3.28132e-05
3.43173e-05
3.70213e-05
4.02563e-05
4.41978e-05
4.70447e-05
4.93845e-05
5.14591e-05
5.24516e-05
0.000260372
0.000260733
4.86462e-05
4.4472e-05
4.01895e-05
3.55586e-05
3.09787e-05
2.57298e-05
2.04656e-05
1.53297e-05
1.15866e-05
8.90537e-06
6.6513e-06
5.02115e-06
3.87302e-06
3.07292e-06
2.5304e-06
2.10948e-06
1.64514e-06
1.31144e-06
1.83067e-05
1.74896e-05
1.66509e-05
1.89929e-05
1.9412e-05
1.67271e-05
2.38721e-05
5.34582e-05
9.27244e-05
7.51589e-05
2.38107e-05
3.89572e-06
5.57416e-05
0.000123733
0.000179946
0.000225377
0.000195891
0.000139753
0.000104965
7.66779e-05
5.48456e-05
4.08078e-05
0.000693514
5.52392e-05
7.32369e-05
0.000588366
0.000100489
0.000203739
6.04078e-05
4.50475e-05
3.41684e-05
3.86064e-05
4.83417e-05
6.47164e-05
9.13859e-05
0.000119694
0.000140744
0.00024225
0.000270504
0.000282872
0.000280598
0.000102288
9.92331e-05
8.21552e-05
6.53886e-05
0.000241
5.14127e-05
4.89717e-05
4.96176e-05
5.21068e-05
0.000274981
5.54411e-05
5.70244e-05
5.86067e-05
5.84467e-05
5.7306e-05
5.50226e-05
5.20682e-05
4.92586e-05
0.000303797
4.07452e-05
3.69528e-05
3.39951e-05
3.14819e-05
2.85881e-05
2.63288e-05
2.52334e-05
2.54486e-05
2.62217e-05
2.73164e-05
2.84026e-05
2.93062e-05
3.09089e-05
3.35127e-05
3.66986e-05
4.0448e-05
4.30789e-05
4.54741e-05
4.74016e-05
4.83061e-05
4.9086e-05
0.000261737
4.50908e-05
4.11642e-05
3.7361e-05
3.29507e-05
2.87163e-05
2.39386e-05
1.89768e-05
1.42997e-05
1.08749e-05
8.36034e-06
6.28208e-06
4.78551e-06
3.68882e-06
2.96337e-06
2.44956e-06
2.04294e-06
1.60394e-06
1.29702e-06
1.82076e-05
1.64821e-05
1.42953e-05
1.21401e-05
9.45809e-06
6.78895e-06
1.01753e-05
2.79847e-05
6.39597e-05
8.26449e-05
4.52044e-05
1.40367e-05
1.49897e-05
5.11168e-05
9.03576e-05
0.000116967
0.00156145
0.00105544
6.23468e-05
0.000603243
2.59732e-05
2.01507e-05
2.36475e-05
3.45289e-05
4.83173e-05
7.70433e-05
7.35276e-05
3.60064e-05
7.13058e-05
1.11923e-05
8.43724e-06
1.49721e-05
7.32501e-05
2.87743e-05
5.79318e-05
9.78045e-05
0.000119561
0.000564272
0.000118433
0.0005281
9.46668e-05
8.68066e-05
7.54722e-05
0.000231934
5.01105e-05
4.35309e-05
0.000256629
3.79152e-05
0.000267074
4.25419e-05
0.000278566
4.50375e-05
4.65376e-05
4.80649e-05
0.000293247
4.69318e-05
4.49149e-05
4.22809e-05
3.95621e-05
3.6696e-05
3.29624e-05
2.99562e-05
2.78672e-05
0.00034384
2.37117e-05
2.21016e-05
2.13578e-05
2.18045e-05
2.27792e-05
2.39094e-05
2.49589e-05
2.6047e-05
2.76326e-05
3.02402e-05
3.32927e-05
3.67407e-05
3.93479e-05
4.16408e-05
4.35358e-05
4.44828e-05
4.52337e-05
4.49596e-05
0.000264593
3.80764e-05
3.45872e-05
3.04892e-05
2.64937e-05
2.20886e-05
1.7654e-05
1.33136e-05
1.01726e-05
7.82299e-06
5.92339e-06
4.5433e-06
3.53064e-06
2.84609e-06
2.37155e-06
1.97414e-06
1.57165e-06
1.27804e-06
1.79576e-05
1.47981e-05
1.05869e-05
7.31489e-06
4.19045e-06
2.51709e-06
5.0167e-06
1.68141e-05
4.331e-05
6.99392e-05
5.93773e-05
2.38343e-05
1.00037e-05
1.8967e-05
4.26607e-05
0.000521217
5.11922e-05
3.6667e-05
0.000422249
1.76327e-05
8.86556e-06
5.26574e-06
6.5766e-06
5.53151e-05
1.0488e-05
6.53116e-06
6.7672e-06
1.46972e-05
6.52424e-05
6.00171e-06
3.12717e-06
4.03933e-06
7.10913e-06
1.48777e-05
3.86562e-05
0.000160063
9.20941e-05
0.000101032
9.96595e-05
0.000298295
7.9252e-05
0.000215692
5.35688e-05
0.000245273
0.000265636
3.04684e-05
2.83491e-05
2.80701e-05
2.9999e-05
0.000294845
3.42601e-05
3.50134e-05
3.65185e-05
3.80731e-05
3.81926e-05
3.72183e-05
3.55765e-05
3.35242e-05
3.12666e-05
2.91017e-05
2.6597e-05
2.42951e-05
2.25637e-05
2.13996e-05
1.96357e-05
1.84999e-05
1.81179e-05
1.86609e-05
1.96231e-05
2.0821e-05
2.19644e-05
2.31036e-05
2.46783e-05
2.71294e-05
3.00304e-05
3.32123e-05
3.57582e-05
3.80665e-05
3.98882e-05
4.08273e-05
4.1469e-05
4.11528e-05
3.83948e-05
3.50437e-05
3.20397e-05
2.81069e-05
2.44891e-05
2.03451e-05
1.63514e-05
1.2388e-05
9.51354e-06
7.3206e-06
5.58347e-06
4.29392e-06