/*--------------------------------*- C++ -*----------------------------------*\
  =========                 |
  \\      /  F ield         | OpenFOAM: The Open Source CFD Toolbox
   \\    /   O peration     | Website:  https://openfoam.org
    \\  /    A nd           | Version:  6
     \\/     M anipulation  |
\*---------------------------------------------------------------------------*/
FoamFile
{
    version     2.0;
    format      ascii;
    class       volScalarField;
    location    "0.1";
    object      CH3CHOH;
}
// * * * * * * * * * * * * * * * * * * * * * * * * * * * * * * * * * * * * * //

dimensions      [0 0 0 0 0 0 0];

internalField   nonuniform List<scalar> 
8000
(
2.78303e-12
1.6389e-07
6.20368e-06
4.59567e-05
0.000105106
5.15296e-05
1.52793e-05
3.09791e-06
3.39451e-07
1.2324e-08
1.62321e-10
2.3937e-12
5.59268e-12
2.29412e-08
5.49041e-09
8.0255e-10
1.053e-07
4.37856e-05
1.14701e-06
1.63348e-07
1.91933e-07
6.37321e-07
4.00907e-06
3.19026e-05
0.000134136
0.000262948
0.000326966
0.000316836
0.000299111
0.000118405
3.00626e-05
0.000102027
4.15354e-05
1.87585e-05
1.08778e-05
8.02949e-06
7.42922e-06
8.89917e-06
1.58144e-05
2.84767e-05
2.02348e-05
1.69707e-05
1.90812e-05
2.70599e-05
4.4129e-05
7.91637e-05
0.000149604
0.000272326
0.000420214
0.000122964
3.31078e-05
0.000506481
0.000560009
0.000561605
0.000557575
0.000548838
0.000539408
0.000533806
0.000531429
0.00052973
0.000527547
0.000525398
0.000496818
0.000442875
0.000289744
0.000102872
0.000141979
9.71138e-05
8.72717e-05
8.16066e-05
0.00012817
6.6137e-05
6.71761e-05
5.53326e-05
5.7301e-05
7.19878e-05
7.17752e-05
7.54204e-05
8.20037e-05
8.45929e-05
7.77643e-05
7.6366e-05
6.84731e-05
5.18211e-05
4.00943e-05
2.968e-05
2.40444e-05
1.9142e-05
5.11706e-05
1.20274e-05
8.81445e-06
6.24317e-06
4.54513e-06
3.4694e-06
2.05127e-06
1.50294e-06
1.21664e-06
1.03092e-06
9.64688e-07
6.059e-07
9.05526e-13
1.76517e-07
7.11948e-06
5.20309e-05
0.000139423
5.23768e-05
1.42684e-05
2.90365e-06
2.83952e-07
8.43698e-09
7.4816e-11
2.96926e-12
1.87494e-11
8.47717e-07
2.54315e-07
1.02241e-08
1.92699e-08
6.30184e-07
6.56848e-07
8.14486e-07
4.36856e-07
9.12864e-07
5.26583e-06
3.63903e-05
0.000143676
0.000283238
0.000334899
0.000319028
0.000287556
0.000282646
0.00015708
8.48745e-05
3.91515e-05
2.06763e-05
1.45618e-05
1.19741e-05
1.10421e-05
1.23911e-05
2.03557e-05
3.76821e-05
2.8078e-05
2.08546e-05
2.24612e-05
3.09489e-05
4.89784e-05
8.56032e-05
0.000156576
0.000276151
0.000414372
0.000484896
0.000541612
0.000553087
0.000561561
0.000559878
0.000555902
0.000547859
0.000539426
0.000534371
0.000532126
0.000529309
0.000525893
0.000524763
0.000492366
0.000416327
0.000205155
0.00010181
0.000140619
9.65417e-05
8.6854e-05
8.0882e-05
7.68973e-05
6.55676e-05
6.70641e-05
5.48409e-05
5.68908e-05
7.18634e-05
7.14179e-05
7.51558e-05
8.16006e-05
8.47077e-05
7.75142e-05
7.63186e-05
6.82196e-05
5.15704e-05
4.0152e-05
2.96005e-05
2.39869e-05
1.91039e-05
1.55977e-05
1.20015e-05
8.80122e-06
6.23264e-06
4.53913e-06
3.47034e-06
2.04639e-06
1.49998e-06
1.21468e-06
1.02931e-06
9.65813e-07
6.04811e-07
3.8597e-13
2.41662e-07
1.49348e-05
6.73721e-05
6.16373e-05
3.04199e-05
9.12769e-06
6.6206e-06
2.27288e-06
3.76233e-09
3.39162e-08
2.65418e-12
4.2327e-11
8.97203e-07
2.96575e-06
3.45972e-08
2.77994e-09
1.38111e-08
9.8824e-07
3.57871e-05
1.18732e-06
1.62313e-06
8.38483e-06
4.66014e-05
0.000162369
0.000338721
0.000354033
0.000323994
0.000260099
0.000203402
0.000132414
7.40922e-05
3.92841e-05
2.56688e-05
2.40545e-05
2.41648e-05
2.10495e-05
2.20363e-05
2.51733e-05
3.06446e-05
2.68384e-05
2.63657e-05
2.94793e-05
3.91857e-05
5.93021e-05
9.9452e-05
0.000172674
0.000297369
0.000418927
0.000491621
0.000521039
0.000557837
0.000555961
0.000555096
0.00055271
0.000546396
0.000539395
0.000535403
0.000533271
0.000541367
0.000522541
0.000524027
0.000482123
0.00041209
0.000204103
9.95604e-05
0.000101301
9.52346e-05
8.59929e-05
7.94287e-05
7.44212e-05
6.45282e-05
0.000101626
5.37436e-05
5.60134e-05
0.000116664
7.06338e-05
7.45831e-05
8.07406e-05
0.000129675
7.69536e-05
7.6223e-05
6.76388e-05
5.10712e-05
8.02653e-05
2.94232e-05
2.38686e-05
1.90213e-05
1.53942e-05
1.19505e-05
8.7725e-06
6.20955e-06
1.74183e-05
1.48877e-05
2.03558e-06
1.49352e-06
1.21036e-06
1.02577e-06
8.04133e-06
6.02403e-07
7.97491e-13
4.452e-07
2.97652e-05
4.3474e-05
3.06422e-05
1.50026e-05
4.39105e-06
7.21413e-07
3.52706e-08
3.74737e-10
3.01754e-12
4.50273e-13
7.39528e-12
2.24889e-06
4.82203e-05
6.20203e-08
1.20759e-09
2.53539e-09
3.02534e-07
9.32908e-07
7.05965e-07
2.37477e-06
1.37824e-05
6.43297e-05
0.000182901
2.52656e-05
0.000371717
0.000329224
0.000252178
0.000174391
0.000122649
7.26398e-05
4.43747e-05
3.37029e-05
3.79794e-05
3.92236e-05
3.88962e-05
4.13458e-05
3.92415e-05
3.96604e-05
3.71603e-05
3.88829e-05
4.16214e-05
5.18189e-05
7.76792e-05
0.00013312
0.000204336
0.000329317
0.00043511
0.00048572
0.000530894
0.00055768
1.98693e-05
0.000549836
0.000550225
0.000545434
0.00053936
0.000536022
0.000532603
0.000523746
0.000518539
0.000512521
0.000465247
0.000393865
0.000201964
9.65583e-05
9.84725e-05
9.31033e-05
8.48727e-05
7.74853e-05
0.00011909
5.62752e-05
5.66265e-05
5.20375e-05
5.47203e-05
6.84495e-05
6.94462e-05
7.37373e-05
7.95016e-05
8.13253e-05
7.60706e-05
7.61017e-05
6.66984e-05
5.04361e-05
3.86741e-05
2.91446e-05
2.3692e-05
1.88982e-05
1.52169e-05
1.18785e-05
8.72923e-06
6.17526e-06
4.46793e-06
3.31822e-06
2.01849e-06
1.4838e-06
1.20392e-06
1.02037e-06
9.13781e-07
5.98581e-07
4.88332e-13
3.94951e-07
3.59812e-05
5.84621e-05
1.84622e-05
7.16339e-06
1.49778e-06
1.14278e-07
2.31995e-09
1.16231e-11
9.85825e-10
1.47972e-10
1.93527e-10
7.74395e-08
7.96679e-07
6.54489e-09
4.87466e-10
1.33653e-09
6.12139e-08
2.2194e-07
6.79306e-07
4.31976e-06
2.58547e-05
9.17879e-05
0.000205945
0.000354892
0.000359161
0.000312816
0.000247607
0.000175403
0.000124957
8.0603e-05
5.55763e-05
4.4469e-05
4.26621e-05
4.22421e-05
3.97127e-05
4.3253e-05
5.16959e-05
3.16468e-05
5.62552e-05
5.95895e-05
6.01514e-05
7.16769e-05
9.76089e-05
0.000164126
0.000260201
0.000385628
0.000454924
0.000519442
0.000536619
0.000559813
0.000510367
0.000551193
0.000550029
0.000545028
0.000538389
0.000535011
0.000538281
0.000517354
0.000515268
0.000501501
0.000441011
0.000302194
0.000152235
0.000146928
9.49316e-05
8.99888e-05
0.000128365
7.51852e-05
6.98946e-05
5.36339e-05
5.23473e-05
4.99017e-05
5.30821e-05
6.58362e-05
6.79666e-05
7.26434e-05
7.79771e-05
7.8725e-05
7.49642e-05
0.00012277
6.53678e-05
9.02985e-05
3.76444e-05
2.87873e-05
2.34581e-05
1.87349e-05
1.5041e-05
1.17862e-05
8.67179e-06
6.13066e-06
4.41068e-06
3.19838e-06
1.99672e-06
1.471e-06
1.19547e-06
1.01319e-06
8.71328e-07
5.93948e-07
1.04226e-13
1.07413e-06
0.00011163
2.36636e-05
7.4495e-06
2.48134e-06
2.61765e-07
5.96998e-07
6.42364e-11
1.81683e-13
2.03303e-14
1.54659e-14
1.43722e-13
4.31292e-09
1.2439e-08
3.09493e-08
5.7421e-08
6.36941e-08
3.03826e-07
1.74716e-07
1.30772e-06
8.88917e-06
3.61523e-05
7.07519e-05
0.000239844
0.000347006
0.00035323
0.000317684
0.000267657
0.000187424
0.000140212
9.83262e-05
7.66299e-05
6.14985e-05
5.56702e-05
5.18646e-05
5.06309e-05
5.46381e-05
6.40956e-05
7.77616e-05
7.70573e-05
9.26358e-05
6.15767e-05
9.24546e-05
0.000132207
0.000206918
0.000331713
0.000421928
0.000469841
1.73656e-05
0.000538919
0.000561928
1.42329e-05
0.000550861
0.000549854
0.000544357
0.000534603
0.000524284
0.000517209
0.000509779
0.000515532
0.000484201
0.000407522
0.000284724
0.000147635
0.000139554
9.08296e-05
8.58916e-05
7.97312e-05
7.26168e-05
6.71511e-05
5.05541e-05
4.85779e-05
4.767e-05
5.11723e-05
6.34857e-05
6.62894e-05
7.13212e-05
7.62158e-05
7.66968e-05
7.36751e-05
0.000120505
5.70228e-05
4.708e-05
3.67959e-05
2.83585e-05
2.31725e-05
1.85528e-05
1.48548e-05
1.16752e-05
8.60042e-06
6.07628e-06
4.34989e-06
1.38456e-05
1.97107e-06
1.4575e-06
1.18479e-06
1.00444e-06
8.37616e-07
5.88638e-07
2.43069e-15
8.58204e-08
1.20567e-05
9.10903e-06
1.7286e-06
4.53757e-07
8.53019e-07
1.7823e-07
7.68112e-09
8.17558e-14
1.19697e-14
8.33272e-14
2.39322e-09
2.27406e-10
4.49198e-10
3.17718e-10
1.17143e-09
9.20758e-09
5.26559e-08
2.93019e-07
9.68245e-06
1.70378e-05
6.3435e-05
0.000149059
0.000254145
3.04409e-05
3.14431e-05
0.000327789
4.02205e-05
0.000230688
0.000168223
0.000132956
0.000104238
9.00517e-05
8.24545e-05
7.66051e-05
7.02914e-05
7.64052e-05
8.56714e-05
0.000104458
6.68122e-05
9.8271e-05
9.57873e-05
0.00011662
0.000154895
0.000261958
2.72115e-05
0.000445731
0.000475725
0.000506007
0.000537466
0.000549127
1.46714e-05
0.000550465
0.000547576
0.000537913
0.000523858
1.67543e-05
0.000508452
0.000502229
0.000520588
0.000458642
0.000404841
0.000271885
0.00013538
9.65011e-05
8.63041e-05
8.12393e-05
7.61958e-05
6.99665e-05
6.47025e-05
4.73979e-05
4.54292e-05
4.53327e-05
4.90547e-05
5.3869e-05
6.44504e-05
6.97852e-05
7.43093e-05
0.000121813
7.22253e-05
7.12176e-05
5.41266e-05
4.47887e-05
3.60583e-05
2.78615e-05
2.28333e-05
5.47386e-05
1.47325e-05
1.16162e-05
8.51591e-06
6.01313e-06
4.28633e-06
2.99971e-06
1.94134e-06
1.44139e-06
1.17241e-06
9.94359e-07
8.10158e-07
5.82657e-07
2.39547e-10
2.14735e-07
3.22524e-06
8.07318e-07
1.79722e-07
1.61068e-08
1.93055e-07
3.80741e-11
2.81766e-13
2.59094e-14
1.65572e-10
2.21444e-09
3.96193e-10
4.73763e-08
3.14947e-10
5.61071e-10
5.64616e-09
3.48582e-08
1.40666e-07
6.744e-07
3.60978e-06
3.48034e-05
9.00476e-05
7.09595e-05
0.000294275
0.000370362
0.000364899
0.00033802
0.000309819
0.000251919
5.12941e-05
0.000170917
0.000151366
0.000134825
0.000125823
6.07392e-05
0.000103771
0.000103978
0.000120589
0.00012666
0.000119461
0.000103163
0.000105847
0.000135963
0.000174764
0.000271098
0.000390992
0.000443728
0.000476198
0.000503321
0.00053335
0.000535068
1.55844e-05
0.000549702
0.000545742
0.000537443
0.000526947
0.000508671
0.000498536
0.000487775
0.000481018
0.000481648
0.000350084
0.000189521
9.00131e-05
9.08658e-05
8.15686e-05
7.62747e-05
7.28642e-05
0.000107097
9.40866e-05
4.42328e-05
4.23294e-05
4.29261e-05
8.8242e-05
5.05355e-05
5.59194e-05
6.80059e-05
7.23597e-05
0.000119316
7.0643e-05
6.86917e-05
5.10268e-05
4.26729e-05
7.10274e-05
2.73054e-05
2.24423e-05
1.81684e-05
1.46372e-05
1.15448e-05
8.44774e-06
5.94089e-06
4.22006e-06
2.91723e-06
1.90854e-06
1.42284e-06
1.15829e-06
9.82656e-07
7.86901e-07
5.76068e-07
1.12884e-16
8.84011e-10
7.29873e-07
7.33218e-07
5.37524e-09
1.47034e-10
1.7331e-11
4.31246e-13
3.32076e-14
1.18342e-13
3.35282e-10
1.14003e-08
4.80787e-07
3.56661e-08
1.80481e-07
1.44543e-07
3.53732e-07
1.32282e-07
2.15304e-06
1.85016e-06
6.63584e-06
2.58296e-05
7.5716e-05
0.000170107
3.39238e-05
2.63057e-05
0.000376012
0.000366198
3.33199e-05
0.000282729
0.000247675
0.00022867
0.000225799
0.000209384
0.000176557
0.000161993
5.96945e-05
0.0001492
0.000160724
6.29967e-05
0.00013798
0.000130504
0.000137944
0.000160537
0.000195202
0.000280425
0.000363065
0.000446681
0.000476446
0.000499135
0.00051062
0.000527298
0.000524004
0.000521765
1.73046e-05
0.000512746
0.000507208
0.000499932
0.000488745
0.00046686
0.00044105
0.000405209
0.000262383
0.000139508
0.0001339
8.52062e-05
7.66783e-05
7.13082e-05
0.000115425
6.2761e-05
4.8653e-05
4.08138e-05
3.93218e-05
4.04653e-05
4.39849e-05
4.7394e-05
5.28784e-05
6.5934e-05
0.000115411
6.99253e-05
0.00011012
0.000102242
4.8084e-05
4.06167e-05
6.99796e-05
2.66514e-05
2.20054e-05
1.79198e-05
1.4525e-05
1.14401e-05
8.38277e-06
5.86076e-06
4.13452e-06
2.84002e-06
1.87281e-06
1.40191e-06
1.1425e-06
9.69231e-07
7.66261e-07
5.68826e-07
4.08247e-18
1.45309e-11
2.29277e-09
1.30102e-07
3.87819e-11
4.5914e-13
3.03582e-09
2.91787e-14
1.47559e-10
6.78375e-10
2.63516e-11
4.05968e-08
4.23844e-07
2.94981e-06
9.19414e-08
4.18963e-08
7.58218e-08
3.70563e-07
5.52448e-06
1.4614e-05
3.048e-05
3.45692e-05
7.97125e-05
0.000168013
0.00029201
2.99493e-05
0.000377104
0.000369885
0.00034025
0.000309245
0.00029154
0.000288269
0.000350305
2.86072e-05
3.69714e-05
0.000252373
0.000230949
0.000217767
0.0002127
0.000189107
0.000165217
0.000157595
0.000167091
0.00019067
0.00025017
0.000306194
0.000369934
0.000452105
0.000477245
0.000493671
0.000502648
0.000504814
0.000512423
0.000511421
0.000506503
0.000501998
1.94831e-05
4.43785e-05
0.000465794
0.000435254
0.000396451
0.000337755
0.000174461
8.71048e-05
0.000117251
0.000122351
7.18512e-05
6.63457e-05
0.000102902
5.02841e-05
4.31164e-05
3.74298e-05
3.67789e-05
3.80113e-05
4.10574e-05
4.44852e-05
8.91885e-05
9.68665e-05
6.76222e-05
6.69997e-05
6.58498e-05
5.65618e-05
4.54872e-05
3.86101e-05
3.24675e-05
2.66959e-05
2.15269e-05
1.76288e-05
1.43956e-05
1.13238e-05
8.31291e-06
5.77078e-06
4.04708e-06
2.76691e-06
1.84271e-06
1.37884e-06
1.1253e-06
9.54131e-07
7.47692e-07
5.60803e-07
1.60445e-19
1.81917e-09
1.98796e-08
1.51819e-08
2.57766e-13
4.71473e-14
2.64976e-14
9.94314e-11
2.84342e-10
3.06952e-09
2.10295e-08
1.73358e-07
6.23392e-06
1.47733e-05
4.0965e-07
1.25247e-07
1.03462e-06
5.63457e-07
2.74794e-06
8.44988e-06
2.03228e-05
4.6206e-05
9.76956e-05
0.000173313
0.000270792
0.00036887
0.000384851
0.000377379
0.000371197
0.000343601
0.00033341
0.000351877
0.000369502
0.000360719
0.000341661
2.84045e-05
0.000330822
3.0096e-05
0.000285995
3.99757e-05
0.000229408
0.00020003
0.000208966
0.000256181
0.000293946
0.000336415
0.000377368
0.000453503
2.44484e-05
0.000486408
0.000490473
0.000492811
0.000493252
0.00049811
2.02913e-05
0.000490909
4.90387e-05
0.000470165
0.00043583
0.000392023
0.000340955
0.000247522
0.000130067
0.00012883
8.22709e-05
7.27612e-05
6.71299e-05
6.15493e-05
5.20512e-05
8.57959e-05
3.82152e-05
3.47284e-05
3.44198e-05
3.58225e-05
3.82957e-05
4.17767e-05
4.64799e-05
5.36594e-05
6.49602e-05
9.75893e-05
5.65252e-05
5.17985e-05
4.29122e-05
3.68434e-05
3.07722e-05
2.58777e-05
2.10006e-05
1.73108e-05
1.42089e-05
3.25578e-05
8.232e-06
5.6796e-06
3.95413e-06
2.69874e-06
1.81499e-06
1.35392e-06
1.10584e-06
9.37886e-07
7.247e-07
5.52213e-07
5.76213e-12
6.40939e-11
3.38386e-09
3.25611e-09
2.94477e-13
2.26003e-10
1.45485e-12
2.99109e-09
8.00741e-09
1.73643e-08
5.87083e-08
2.24064e-08
1.03928e-06
3.63437e-05
9.83158e-07
2.1582e-07
2.15508e-07
6.84255e-07
5.47529e-06
3.04463e-05
2.92525e-05
6.69655e-05
7.45928e-05
0.00018897
0.000269399
3.14785e-05
2.80346e-05
0.000388413
0.000398873
2.89583e-05
0.000392639
0.000390205
0.000392746
0.000384603
0.000373684
0.000375909
0.000364764
0.000376128
3.12404e-05
0.000336091
0.000291498
0.000271889
0.000280536
0.000319725
0.000351112
0.000363727
0.000415891
0.000442482
0.000465776
0.000474997
2.50274e-05
2.50138e-05
2.49774e-05
0.00048189
0.000479883
0.000474919
0.000466763
0.000438965
0.000394543
0.000310236
0.000242783
0.000149201
8.17265e-05
8.54318e-05
7.5278e-05
6.64119e-05
9.92694e-05
8.99991e-05
4.43846e-05
3.90919e-05
3.43549e-05
3.21094e-05
3.21017e-05
3.36262e-05
3.60031e-05
3.91008e-05
4.33463e-05
4.92812e-05
5.63745e-05
5.4354e-05
5.21949e-05
4.77489e-05
4.0377e-05
3.50645e-05
2.94172e-05
2.50215e-05
2.04405e-05
1.69699e-05
1.40061e-05
1.10115e-05
8.13086e-06
1.92961e-05
3.85549e-06
2.6331e-06
1.78516e-06
1.32636e-06
1.08452e-06
9.20082e-07
7.05767e-07
5.4284e-07
7.22172e-12
1.71672e-16
5.74081e-15
8.01772e-13
1.50109e-11
4.0426e-09
1.3077e-10
3.3445e-08
4.79407e-09
2.05583e-08
3.71754e-08
1.31583e-07
1.24904e-06
1.06475e-05
1.09805e-06
3.05156e-07
3.59968e-07
9.80369e-07
4.90312e-06
1.66455e-05
3.85297e-05
9.16746e-05
6.88621e-05
0.000205701
0.000271671
3.97664e-05
0.000379168
0.000381613
2.50709e-05
0.00041148
2.5505e-05
0.000412992
0.000406608
0.000404401
0.000402368
0.000399176
0.000392711
0.000393627
0.000383029
0.000381197
3.07496e-05
3.56546e-05
0.000343086
0.000397017
2.98283e-05
0.000375484
0.00041594
3.11626e-05
0.000430083
0.000452752
3.6179e-05
0.000451248
0.000453646
0.000460257
8.55694e-05
0.000186277
0.000433775
0.000451023
0.000285016
0.00028306
0.000157897
0.000119184
0.000123023
7.81799e-05
0.000115607
6.04027e-05
9.18216e-05
4.28882e-05
3.83002e-05
3.43978e-05
3.11569e-05
2.96773e-05
2.99323e-05
3.14497e-05
3.37818e-05
3.67614e-05
4.04923e-05
4.55163e-05
9.15184e-05
4.98418e-05
4.81147e-05
8.61685e-05
3.80154e-05
3.32975e-05
2.81253e-05
2.42419e-05
1.98728e-05
1.6594e-05
1.37971e-05
1.07429e-05
2.45295e-05
5.48501e-06
3.75664e-06
2.56913e-06
1.75295e-06
1.29732e-06
1.06171e-06
8.94603e-07
6.87698e-07
5.3306e-07
1.19653e-16
9.16522e-11
1.37746e-13
8.13126e-09
3.81805e-07
1.22029e-08
1.6327e-08
4.80561e-07
9.34782e-07
3.91295e-06
4.11063e-07
3.68861e-06
1.84502e-06
2.35695e-05
5.08797e-06
5.11106e-07
7.58254e-07
7.32032e-06
2.33366e-05
3.45924e-05
5.24074e-05
7.52084e-05
0.000213575
0.000217029
0.000264788
0.000309122
0.000341656
0.000351781
0.000393639
0.000404535
0.000419874
0.000417267
0.000419434
2.48464e-05
0.000418181
0.000416716
0.000419185
0.000421819
2.59787e-05
0.000406871
0.000401732
0.000396181
0.000404836
0.000432527
2.87029e-05
0.000370741
0.000351622
0.000333464
0.000388838
0.000402827
0.000383173
0.000379222
0.000415651
0.000182348
0.000192774
0.00041012
0.000386841
0.000292314
0.000289827
0.000162566
7.79597e-05
7.37528e-05
0.000110543
7.10487e-05
6.19839e-05
4.9686e-05
4.32933e-05
3.7128e-05
3.39247e-05
3.06985e-05
2.85272e-05
2.76554e-05
2.80899e-05
2.95357e-05
3.16338e-05
3.45439e-05
3.78116e-05
4.20527e-05
4.79103e-05
4.59891e-05
4.46921e-05
4.13402e-05
3.59491e-05
7.01769e-05
2.76813e-05
6.47169e-05
5.58539e-05
1.61933e-05
1.35432e-05
1.04585e-05
7.80821e-06
5.35763e-06
3.65483e-06
2.50987e-06
1.71887e-06
1.26736e-06
1.03662e-06
8.69237e-07
6.69974e-07
5.2346e-07
2.80829e-09
6.3922e-12
7.69177e-11
2.44511e-07
2.88367e-05
3.78112e-07
1.4395e-06
7.86461e-07
5.64961e-06
1.82832e-06
5.76554e-06
5.19126e-06
2.2641e-06
1.61834e-05
7.38767e-06
9.52702e-07
1.64068e-06
1.37048e-05
9.36162e-06
3.97643e-05
6.74081e-05
0.000125663
7.1435e-05
0.000196454
0.000258512
0.000295045
3.92484e-05
0.000331563
0.000341383
0.000385372
0.000407837
0.000414022
2.66627e-05
0.000425817
2.52533e-05
0.000434944
0.000439537
2.36665e-05
2.51637e-05
0.000424951
0.000421973
0.000429112
0.000437599
0.000449488
0.000424648
0.000341531
0.000310304
0.000283392
0.000259944
0.000157166
0.000170426
0.000327451
0.000318164
0.000312888
0.000291824
0.000253235
0.000302633
0.000243163
0.000169232
0.000118358
0.000117955
7.83217e-05
7.17132e-05
6.40999e-05
5.31742e-05
4.25649e-05
3.68879e-05
3.25158e-05
7.11978e-05
2.78382e-05
2.70602e-05
2.64479e-05
2.70708e-05
2.77866e-05
2.97551e-05
3.23739e-05
3.55404e-05
3.88663e-05
8.52004e-05
4.24911e-05
4.13895e-05
3.83736e-05
3.3935e-05
2.98784e-05
2.63317e-05
2.2713e-05
1.90222e-05
1.59713e-05
1.32499e-05
1.01492e-05
2.31824e-05
5.22923e-06
3.55969e-06
2.45115e-06
1.69131e-06
1.24186e-06
1.01022e-06
8.42792e-07
6.52665e-07
5.12923e-07
1.09707e-07
7.74905e-09
1.22218e-08
3.65156e-06
3.05712e-05
4.92604e-06
1.57838e-06
1.47889e-05
1.20575e-05
3.4679e-06
3.70349e-06
1.30228e-05
4.23172e-06
4.65724e-06
2.58062e-06
5.94069e-06
2.94484e-06
5.14366e-06
1.11388e-05
2.795e-05
6.36034e-05
7.67343e-05
0.000142442
7.25089e-05
6.29479e-05
4.33089e-05
4.363e-05
0.000287768
0.000294957
0.000337697
3.16576e-05
3.02821e-05
0.000391583
0.000394445
0.000413726
2.45481e-05
2.43982e-05
0.000438727
0.000439998
2.82069e-05
0.000443965
0.00045774
2.7281e-05
0.000436577
3.79106e-05
0.00029661
6.8021e-05
0.000212427
0.000172964
0.000171844
0.000131543
0.000183607
0.000211126
0.000226722
0.000231522
0.000238915
0.000200159
0.00015968
0.000117694
0.000112999
0.000108311
0.000111022
6.24836e-05
5.59584e-05
4.33214e-05
3.57217e-05
3.11443e-05
2.82445e-05
2.74149e-05
2.55323e-05
2.44814e-05
2.43168e-05
2.49773e-05
2.64745e-05
7.21722e-05
3.00112e-05
3.29223e-05
7.18263e-05
3.90314e-05
7.85212e-05
3.77994e-05
3.55409e-05
3.1615e-05
2.80646e-05
2.49081e-05
6.08992e-05
1.84471e-05
1.57021e-05
1.29809e-05
2.80313e-05
7.21469e-06
5.06484e-06
3.45248e-06
2.3803e-06
1.65773e-06
1.22379e-06
9.75986e-07
8.10037e-07
6.31579e-07
4.99847e-07
1.94795e-07
1.55932e-07
2.41227e-07
7.85151e-07
2.30726e-06
1.44682e-06
3.37784e-06
8.82237e-06
6.59785e-06
6.38178e-06
2.64123e-05
2.41973e-05
2.49985e-05
6.56087e-06
1.45717e-05
4.12055e-06
5.70036e-06
2.7328e-05
3.67588e-05
3.39914e-05
5.6914e-05
8.13899e-05
0.000114791
0.000164245
6.47072e-05
6.15611e-05
6.16805e-05
0.000238033
6.14081e-05
0.000273626
0.000291
0.000303916
0.000310018
0.00033069
0.000349152
0.000388539
0.000396885
0.000409816
2.87296e-05
0.000447103
2.84629e-05
2.47892e-05
2.75264e-05
0.000369139
0.000296708
0.000236449
7.23441e-05
4.23407e-05
7.58372e-05
0.000121185
0.000148354
0.000181791
0.000175116
0.000174738
0.000122362
0.000111819
0.000125231
0.000119525
7.75376e-05
0.000110289
0.000109882
0.00010096
5.24718e-05
4.3608e-05
3.51976e-05
2.98157e-05
2.71011e-05
2.51405e-05
2.3906e-05
2.28807e-05
2.23229e-05
2.23283e-05
2.31027e-05
2.44276e-05
2.61218e-05
2.76556e-05
2.99946e-05
3.22623e-05
3.47765e-05
3.48088e-05
3.44321e-05
3.25159e-05
2.92964e-05
2.68205e-05
2.35478e-05
2.04895e-05
1.77273e-05
1.52442e-05
1.26307e-05
9.40655e-06
6.78335e-06
4.82813e-06
3.32205e-06
2.29583e-06
1.61834e-06
1.20079e-06
9.34696e-07
7.75966e-07
6.06347e-07
4.82968e-07
7.1272e-07
1.19267e-07
9.37364e-07
1.18905e-06
1.50502e-06
1.37696e-06
2.23231e-06
4.26687e-06
4.68868e-06
7.72319e-06
4.15431e-05
1.56892e-05
1.25552e-05
2.77326e-05
2.15921e-05
2.58999e-05
1.22179e-05
1.92528e-05
4.47901e-05
5.70572e-05
5.66689e-05
7.49533e-05
9.60477e-05
0.00014933
7.20181e-05
0.000188471
0.000183374
0.000186126
7.1193e-05
0.000205752
6.27348e-05
5.71809e-05
0.000261553
0.000302457
4.31912e-05
0.000290962
0.000313305
0.000341387
0.000379305
3.09543e-05
0.000424037
0.000423127
0.000363699
4.09803e-05
0.000236605
6.35264e-05
4.5955e-05
8.6043e-05
8.6039e-05
8.2927e-05
8.55183e-05
0.000116161
8.77656e-05
0.000117148
8.33767e-05
0.000108577
0.000107252
0.000110571
6.57666e-05
6.01655e-05
5.48253e-05
4.90248e-05
4.11491e-05
3.5053e-05
7.45149e-05
2.62181e-05
2.36944e-05
2.21413e-05
6.00853e-05
5.93929e-05
2.04033e-05
2.05722e-05
2.12589e-05
2.26091e-05
2.42013e-05
2.60779e-05
2.7529e-05
2.93336e-05
3.10834e-05
3.13426e-05
3.11405e-05
2.97489e-05
7.20543e-05
2.49144e-05
2.21798e-05
1.97199e-05
1.70116e-05
1.46859e-05
1.21825e-05
2.56673e-05
6.448e-06
4.57635e-06
3.1904e-06
2.20524e-06
1.57767e-06
1.1742e-06
9.1199e-07
7.43315e-07
5.81515e-07
4.64449e-07
8.60104e-07
4.04171e-07
8.93593e-07
1.20798e-06
1.05236e-06
7.08037e-07
8.76941e-07
1.45542e-06
2.43948e-06
6.31389e-06
1.88836e-05
2.58932e-05
2.01779e-05
1.90094e-05
3.4868e-05
1.89184e-05
2.54685e-05
3.87611e-05
3.92733e-05
4.80266e-05
6.12456e-05
5.93499e-05
6.13492e-05
7.25602e-05
7.49963e-05
0.000150812
0.00014573
0.000139644
0.000130696
0.000146605
7.39158e-05
0.000153489
0.000170728
6.66136e-05
0.000191754
0.000203388
6.20174e-05
0.000280551
0.000305382
0.000332076
0.000342797
4.03578e-05
0.000287014
0.000231761
5.21332e-05
0.000170614
0.000126909
6.81517e-05
6.6836e-05
6.79566e-05
7.15125e-05
0.000118428
0.000117
7.31472e-05
7.08137e-05
6.89258e-05
6.64707e-05
6.06726e-05
5.53507e-05
5.17639e-05
4.50979e-05
7.67192e-05
3.35407e-05
7.29591e-05
2.57318e-05
2.30932e-05
2.1367e-05
2.02355e-05
1.95616e-05
1.91611e-05
5.30372e-05
1.92728e-05
2.00433e-05
2.10794e-05
2.23977e-05
2.42646e-05
2.58794e-05
2.76155e-05
2.82135e-05
7.27503e-05
2.84453e-05
2.74567e-05
2.58643e-05
2.34207e-05
2.09826e-05
1.8856e-05
1.66052e-05
1.41062e-05
1.15652e-05
8.50485e-06
6.11096e-06
4.33078e-06
3.04414e-06
2.11756e-06
1.53747e-06
1.1442e-06
8.92462e-07
7.11149e-07
5.56445e-07
4.45161e-07
8.71986e-07
7.4509e-07
1.34675e-06
1.48972e-06
1.70874e-06
2.47975e-06
2.66092e-06
1.82085e-06
1.5948e-06
4.88219e-06
1.46831e-05
4.92046e-05
3.10654e-05
4.4248e-05
3.04248e-05
3.65036e-05
4.44168e-05
4.74892e-05
4.69779e-05
4.56073e-05
5.21722e-05
4.64655e-05
6.6636e-05
8.72993e-05
0.000109912
0.000116526
0.000124872
6.64023e-05
7.84623e-05
6.7962e-05
7.72595e-05
7.66633e-05
7.28128e-05
0.000118704
7.53422e-05
0.000153182
0.00018486
0.000203954
0.000228419
0.000274909
0.000275302
0.000252146
0.000142572
5.12403e-05
4.26143e-05
7.08072e-05
5.60569e-05
4.91746e-05
4.83086e-05
5.01334e-05
9.7125e-05
0.00010058
0.000102846
6.06579e-05
0.000100254
5.71996e-05
5.7312e-05
9.13001e-05
4.57217e-05
4.10556e-05
3.6449e-05
3.28811e-05
2.8845e-05
2.54824e-05
2.28063e-05
2.06887e-05
1.94695e-05
1.86075e-05
1.80563e-05
1.77353e-05
1.7686e-05
1.78458e-05
1.86863e-05
1.98424e-05
2.10332e-05
2.25144e-05
6.52642e-05
2.52811e-05
2.63636e-05
2.67935e-05
2.67982e-05
2.59518e-05
6.62358e-05
2.19074e-05
2.00997e-05
1.79197e-05
1.60121e-05
1.36598e-05
1.08736e-05
7.94364e-06
5.75449e-06
4.13053e-06
2.89604e-06
2.03296e-06
1.49374e-06
1.11125e-06
8.75843e-07
7.01555e-07
5.29882e-07
4.2555e-07
8.75908e-07
8.55392e-07
1.2644e-06
1.98676e-06
2.68735e-06
3.25405e-06
3.89748e-06
4.05395e-06
2.70299e-06
3.20077e-06
1.3611e-05
2.81401e-05
5.04274e-05
5.75637e-05
5.51969e-05
8.05543e-05
8.63797e-05
5.62058e-05
6.1834e-05
4.83804e-05
4.35537e-05
4.08916e-05
4.68959e-05
6.17686e-05
7.46537e-05
6.13606e-05
7.1826e-05
5.56623e-05
4.41793e-05
4.19949e-05
3.76792e-05
3.73959e-05
4.26558e-05
5.04444e-05
6.382e-05
0.000109959
0.000140364
7.46031e-05
0.000177673
0.000185788
0.000174675
0.000122045
6.29336e-05
3.46435e-05
6.32524e-05
4.82604e-05
7.68141e-05
3.66258e-05
3.59203e-05
3.72087e-05
4.00563e-05
4.22883e-05
4.43805e-05
4.64388e-05
4.63457e-05
4.51709e-05
4.29066e-05
3.99733e-05
3.68209e-05
3.40752e-05
3.09254e-05
2.79299e-05
2.52202e-05
2.26709e-05
4.90952e-05
1.88672e-05
1.74454e-05
1.68001e-05
1.65584e-05
1.65776e-05
1.66784e-05
1.70012e-05
1.77172e-05
1.85276e-05
1.9785e-05
2.11402e-05
2.227e-05
2.34361e-05
2.43147e-05
2.45623e-05
2.45957e-05
2.40512e-05
2.24702e-05
2.08139e-05
1.91223e-05
1.74638e-05
1.52312e-05
3.39863e-05
1.0348e-05
7.45525e-06
5.37618e-06
3.89151e-06
2.73398e-06
1.94524e-06
1.43238e-06
1.07484e-06
8.58503e-07
6.91134e-07
5.09245e-07
4.03939e-07
8.86845e-07
8.94396e-07
9.69395e-07
1.45987e-06
1.82856e-06
1.74448e-06
2.23997e-06
3.71008e-06
4.22255e-06
3.1887e-06
7.27462e-06
2.95614e-05
5.22373e-05
4.50837e-05
7.61134e-05
7.14827e-05
7.06226e-05
7.35247e-05
5.33454e-05
4.56607e-05
4.36051e-05
3.04439e-05
3.28911e-05
4.46327e-05
4.35058e-05
4.4657e-05
4.334e-05
5.79091e-05
2.25501e-05
1.87102e-05
1.73956e-05
1.82075e-05
5.93379e-05
2.33185e-05
3.2632e-05
4.87111e-05
7.50433e-05
0.000122001
0.00013425
8.25249e-05
0.000101918
8.26899e-05
3.4762e-05
4.33194e-05
4.27696e-05
3.52484e-05
3.1553e-05
2.9383e-05
2.89309e-05
2.9919e-05
7.50171e-05
3.2038e-05
3.37755e-05
7.644e-05
7.74674e-05
3.56202e-05
3.49836e-05
3.29378e-05
6.90351e-05
2.86914e-05
2.67794e-05
2.4503e-05
2.2485e-05
2.04007e-05
1.83881e-05
1.67908e-05
1.56673e-05
1.52391e-05
1.50969e-05
1.51743e-05
3.89224e-05
1.56809e-05
1.65533e-05
1.7635e-05
1.86023e-05
1.99233e-05
2.09846e-05
2.17203e-05
2.23755e-05
2.26674e-05
6.3967e-05
6.34733e-05
2.10318e-05
1.97614e-05
1.82343e-05
1.66666e-05
1.46307e-05
1.22691e-05
9.68541e-06
7.00635e-06
5.01868e-06
3.6565e-06
2.57311e-06
1.86109e-06
1.37066e-06
1.04477e-06
8.38015e-07
6.76568e-07
5.04885e-07
3.85361e-07
9.00901e-07
8.94788e-07
8.24072e-07
8.8029e-07
8.57476e-07
6.84517e-07
8.87994e-07
1.92054e-06
3.48653e-06
3.48145e-06
3.69285e-06
1.03181e-05
3.28969e-05
5.26783e-05
6.66454e-05
8.64862e-05
7.96492e-05
5.68038e-05
4.63596e-05
3.34503e-05
2.51198e-05
1.99114e-05
4.79686e-05
2.87871e-05
3.42706e-05
6.12513e-05
2.51758e-05
5.5922e-05
1.21204e-05
9.82269e-06
1.01055e-05
1.29087e-05
1.48022e-05
1.69558e-05
1.95586e-05
2.33671e-05
2.87879e-05
7.84206e-05
8.05448e-05
6.62535e-05
3.58356e-05
2.96122e-05
4.24109e-05
4.06294e-05
3.29826e-05
6.56335e-05
2.55512e-05
2.44977e-05
2.42521e-05
2.47846e-05
6.57156e-05
2.7058e-05
2.83987e-05
2.93638e-05
2.98962e-05
2.99901e-05
2.91067e-05
2.80595e-05
2.68301e-05
5.29022e-05
2.35673e-05
2.13705e-05
1.96247e-05
1.78301e-05
1.59036e-05
1.44319e-05
1.35883e-05
1.33081e-05
1.3375e-05
1.37615e-05
1.41642e-05
1.45961e-05
1.53226e-05
1.63611e-05
1.76631e-05
1.87459e-05
1.95945e-05
2.04596e-05
2.1e-05
2.1134e-05
2.11252e-05
5.95173e-05
1.98925e-05
1.85842e-05
1.74887e-05
1.56391e-05
1.38675e-05
1.15524e-05
8.94588e-06
6.53014e-06
4.70205e-06
3.4231e-06
2.43357e-06
1.77304e-06
1.30639e-06
1.01427e-06
8.16781e-07
6.59624e-07
4.98374e-07
3.87722e-07
9.14091e-07
8.51419e-07
7.34495e-07
5.88862e-07
4.10875e-07
2.41325e-07
3.05845e-07
8.05387e-07
1.97387e-06
2.92384e-06
2.49351e-06
4.21826e-06
1.33668e-05
2.8569e-05
4.4283e-05
5.44633e-05
4.43673e-05
4.65895e-05
2.97112e-05
4.32308e-05
1.38328e-05
1.14961e-05
1.36979e-05
1.67878e-05
1.83656e-05
1.19468e-05
4.51592e-05
1.18114e-05
3.26031e-05
6.42483e-06
5.42806e-06
7.79305e-06
3.29318e-05
1.28194e-05
1.96974e-05
2.38969e-05
2.40153e-05
7.68247e-05
2.6616e-05
8.68149e-05
2.88151e-05
3.45512e-05
3.78179e-05
6.91214e-05
2.65836e-05
2.33904e-05
4.66327e-05
2.09015e-05
4.65878e-05
2.18348e-05
5.26176e-05
2.35875e-05
2.46167e-05
2.54241e-05
5.63471e-05
2.58263e-05
2.53312e-05
2.44973e-05
2.33142e-05
2.19084e-05
2.02042e-05
1.81857e-05
1.65616e-05
3.18486e-05
1.35404e-05
1.23361e-05
1.16936e-05
1.16592e-05
1.18619e-05
1.22276e-05
1.2585e-05
1.32485e-05
1.41341e-05
1.52675e-05
1.63521e-05
1.77319e-05
1.85566e-05
1.9059e-05
1.96762e-05
1.99119e-05
1.99641e-05
1.96571e-05
5.0721e-05
1.78881e-05
1.64986e-05
1.49403e-05
1.28808e-05
1.07836e-05
8.30695e-06
6.02072e-06
4.38728e-06
3.17939e-06
2.29462e-06
1.68018e-06
1.25101e-06
9.80273e-07
7.93959e-07
6.41121e-07
4.93904e-07
3.88554e-07
9.19771e-07
7.70612e-07
5.22802e-07
3.37961e-07
2.21641e-07
1.10738e-07
1.35481e-07
3.54779e-07
1.03003e-06
1.95778e-06
2.09858e-06
1.83194e-06
4.35398e-06
1.46142e-05
2.43808e-05
4.63691e-05
2.66616e-05
1.96241e-05
4.25462e-05
1.08983e-05
6.7235e-06
5.19753e-06
6.50005e-06
2.29469e-05
1.04505e-05
7.28144e-06
6.57767e-06
8.26278e-06
2.672e-05
4.1747e-06
2.95538e-06
3.49673e-06
4.87642e-06
8.00562e-06
1.64431e-05
5.71232e-05
3.27239e-05
3.30433e-05
3.55615e-05
7.84174e-05
3.13745e-05
6.89731e-05
2.93338e-05
5.12279e-05
4.32659e-05
1.8955e-05
1.75848e-05
1.71005e-05
1.77653e-05
4.02498e-05
1.97856e-05
2.04969e-05
2.13294e-05
2.21599e-05
2.24633e-05
2.23288e-05
2.17925e-05
2.09114e-05
1.97196e-05
1.83271e-05
1.67899e-05
1.51284e-05
1.36962e-05