/*--------------------------------*- C++ -*----------------------------------*\
  =========                 |
  \\      /  F ield         | OpenFOAM: The Open Source CFD Toolbox
   \\    /   O peration     | Website:  https://openfoam.org
    \\  /    A nd           | Version:  6
     \\/     M anipulation  |
\*---------------------------------------------------------------------------*/
FoamFile
{
    version     2.0;
    format      ascii;
    class       volScalarField;
    location    "0.1";
    object      CH3CH2O;
}
// * * * * * * * * * * * * * * * * * * * * * * * * * * * * * * * * * * * * * //

dimensions      [0 0 0 0 0 0 0];

internalField   nonuniform List<scalar> 
8000
(
5.95097e-13
9.56218e-09
1.28529e-07
4.59564e-07
5.75783e-07
4.9695e-07
2.557e-07
8.46519e-08
1.6855e-08
1.23113e-09
2.97591e-11
4.52435e-13
1.03491e-12
3.40043e-09
1.14669e-09
1.697e-10
2.04217e-08
6.19309e-07
1.35263e-07
2.93051e-08
3.41168e-08
8.84845e-08
2.41458e-07
4.61809e-07
3.91331e-07
3.80232e-07
3.88706e-07
3.52199e-07
3.322e-07
2.03538e-06
6.0719e-07
2.80991e-07
2.7395e-07
2.11607e-07
1.7096e-07
1.4717e-07
1.36668e-07
1.44711e-07
1.97676e-07
2.48595e-07
1.73357e-07
1.19126e-07
1.00165e-07
1.02532e-07
1.12817e-07
1.0855e-07
1.02993e-07
1.10563e-07
1.56681e-07
2.84174e-06
3.29372e-08
1.24941e-07
1.23482e-07
1.18163e-07
1.05802e-07
8.9536e-08
7.27465e-08
5.65827e-08
4.02772e-08
2.47326e-08
1.26067e-08
5.54449e-09
4.99141e-09
4.38885e-13
4.16463e-10
7.01923e-11
1.36534e-09
8.73241e-10
8.41017e-10
8.22143e-10
1.32925e-07
7.71374e-10
7.74953e-10
5.19272e-09
5.34667e-09
7.89634e-10
7.88874e-10
8.01226e-10
8.23563e-10
8.3263e-10
8.10929e-10
8.06911e-10
7.80808e-10
4.84135e-09
3.94172e-09
3.15988e-09
2.84669e-09
2.60302e-09
6.29172e-07
2.56216e-09
2.462e-09
2.2393e-09
2.01709e-09
1.84573e-09
1.41657e-09
1.19843e-09
1.08924e-09
1.00563e-09
9.74192e-10
7.50664e-10
1.86184e-13
1.05836e-08
1.42579e-07
4.7847e-07
6.27216e-07
4.94877e-07
2.39099e-07
7.97368e-08
1.47306e-08
8.85459e-10
1.61333e-11
5.65526e-13
3.5595e-12
4.91033e-08
2.51317e-08
2.1004e-09
3.91853e-09
5.92565e-08
6.66303e-08
7.67554e-08
6.08138e-08
1.10977e-07
2.62426e-07
4.71006e-07
3.90903e-07
3.9201e-07
3.85313e-07
3.52572e-07
3.19191e-07
3.81892e-07
2.29989e-07
2.59078e-07
2.5671e-07
2.11316e-07
1.86004e-07
1.69664e-07
1.595e-07
1.64771e-07
2.23146e-07
1.42373e-06
2.15056e-07
1.30556e-07
1.06118e-07
1.06807e-07
1.14827e-07
1.09524e-07
1.02821e-07
1.09873e-07
1.60845e-07
1.20561e-07
1.3063e-07
1.28242e-07
1.23401e-07
1.1513e-07
1.02763e-07
8.65972e-08
6.98447e-08
5.377e-08
3.78705e-08
2.29756e-08
1.1727e-08
5.15853e-09
4.7605e-09
2.20791e-11
1.17078e-10
6.88947e-11
1.35245e-09
8.71455e-10
8.39538e-10
8.19407e-10
8.06899e-10
7.69269e-10
7.74377e-10
5.1523e-09
5.31362e-09
7.89096e-10
7.87585e-10
8.00226e-10
8.22037e-10
8.3291e-10
8.10036e-10
8.06654e-10
7.79851e-10
4.82415e-09
3.94863e-09
3.15407e-09
2.84217e-09
2.59995e-09
2.60194e-09
2.55843e-09
2.45859e-09
2.23585e-09
2.01557e-09
1.84505e-09
1.41373e-09
1.19628e-09
1.08771e-09
1.00432e-09
9.74293e-10
7.49546e-10
6.87618e-14
1.62206e-08
4.48254e-07
7.66185e-07
4.73404e-07
3.44736e-07
1.61357e-07
3.48156e-07
3.62592e-07
5.59628e-10
1.30724e-07
4.99561e-13
8.02227e-12
1.18954e-07
1.66969e-07
7.08562e-09
5.99355e-10
2.9497e-09
1.44657e-07
2.23128e-06
1.55223e-07
1.65255e-07
3.07586e-07
4.8569e-07
3.87804e-07
4.45982e-07
4.01249e-07
3.53046e-07
2.92664e-07
2.513e-07
2.24909e-07
2.39354e-07
2.41462e-07
2.16144e-07
2.19914e-07
2.24922e-07
2.10834e-07
2.06842e-07
2.12619e-07
2.1858e-07
1.67153e-07
1.30141e-07
1.14062e-07
1.13272e-07
1.17773e-07
1.11308e-07
1.02396e-07
1.13422e-07
1.62138e-07
1.40456e-07
1.19469e-07
1.27095e-07
1.14265e-07
1.07015e-07
9.58892e-08
8.0181e-08
6.36334e-08
4.81247e-08
3.32398e-08
2.00932e-08
1.00326e-08
4.41977e-09
4.29668e-09
1.68289e-11
1.59071e-10
6.60945e-11
8.82951e-10
8.6739e-10
8.36425e-10
8.14132e-10
7.98326e-10
7.65336e-10
3.77505e-07
5.0615e-09
5.24232e-09
2.59863e-07
7.84656e-10
7.98064e-10
8.18779e-10
1.08975e-07
8.07984e-10
8.06117e-10
7.77665e-10
4.79038e-09
4.87697e-07
3.14107e-09
2.8337e-09
2.59349e-09
2.56782e-09
2.55149e-09
2.45117e-09
2.22832e-09
9.42323e-07
9.82734e-07
1.4075e-09
1.19162e-09
1.08436e-09
1.00144e-09
1.1749e-06
7.47081e-10
1.41519e-13
3.00027e-08
2.99193e-07
4.26242e-07
3.31599e-07
2.09151e-07
9.16556e-08
2.65555e-08
2.71061e-09
6.03165e-11
6.31339e-13
8.13405e-14
1.32405e-12
1.04919e-06
4.81489e-07
1.44663e-08
2.51363e-10
5.47005e-10
5.08403e-08
1.22033e-07
9.84357e-08
1.77181e-07
3.47692e-07
4.43886e-07
3.82106e-07
1.48719e-07
4.58901e-07
3.53689e-07
2.84798e-07
2.39149e-07
2.20028e-07
2.27058e-07
2.33453e-07
2.21306e-07
2.56887e-07
1.40151e-06
2.8253e-07
1.25836e-06
2.40419e-07
2.11636e-07
1.72181e-07
1.44123e-07
1.25413e-07
1.18895e-07
1.06778e-07
1.00138e-07
1.05302e-07
1.14984e-07
1.57359e-07
1.41808e-07
1.18404e-07
1.17276e-07
6.23269e-10
9.54755e-08
8.60098e-08
7.08506e-08
5.49006e-08
4.06555e-08
2.7372e-08
1.55923e-08
7.97248e-09
7.43941e-09
3.68748e-09
9.5693e-12
2.45536e-10
6.27591e-11
8.76805e-10
8.6036e-10
8.32302e-10
8.07349e-10
2.3432e-07
5.26527e-09
5.29329e-09
4.91692e-09
5.13588e-09
7.76091e-10
7.79943e-10
7.94857e-10
8.14245e-10
8.21204e-10
8.04719e-10
8.05379e-10
7.74075e-10
4.74918e-09
3.81944e-09
3.12044e-09
2.82129e-09
2.58399e-09
2.54247e-09
2.54207e-09
2.44005e-09
2.21708e-09
1.99409e-09
1.78118e-09
1.39786e-09
1.18465e-09
1.07932e-09
9.97082e-10
9.40815e-10
7.43225e-10
8.62497e-14
4.41974e-08
2.20656e-07
5.73424e-07
2.62979e-07
1.27824e-07
4.16492e-08
6.28734e-09
2.70657e-10
2.50499e-12
9.64107e-08
4.31288e-08
4.76881e-08
1.4656e-08
7.58661e-08
1.42487e-09
9.97833e-11
2.82701e-10
1.20249e-08
3.87121e-08
8.61637e-08
2.14208e-07
4.08246e-07
4.47915e-07
3.89626e-07
4.35412e-07
3.9871e-07
3.3345e-07
2.75194e-07
2.40421e-07
2.18946e-07
2.23089e-07
2.31826e-07
2.20234e-07
2.27685e-07
2.35693e-07
2.31215e-07
2.33403e-07
2.38607e-07
1.48881e-06
1.90653e-07
1.59218e-07
1.3359e-07
1.06811e-07
1.08885e-07
1.00325e-07
1.02541e-07
1.15234e-07
1.47845e-07
1.29596e-07
1.10719e-07
1.10907e-07
1.03988e-07
8.49462e-08
7.43092e-08
5.95511e-08
4.4687e-08
3.23081e-08
2.14806e-08
1.20119e-08
5.92532e-09
6.0928e-09
3.01325e-09
2.40026e-12
1.89185e-10
1.45427e-09
8.66252e-10
8.4938e-10
1.16333e-07
7.98886e-10
7.81875e-10
5.04773e-09
4.94036e-09
4.73055e-09
4.99887e-09
7.66347e-10
7.73803e-10
7.90714e-10
8.08976e-10
8.1216e-10
8.0059e-10
1.95593e-07
7.68995e-10
4.46565e-07
3.73539e-09
3.0937e-09
2.80482e-09
2.57101e-09
2.51854e-09
2.53041e-09
2.42535e-09
2.20245e-09
1.97279e-09
1.72712e-09
1.38563e-09
1.17573e-09
1.07265e-09
9.91338e-10
9.11457e-10
7.38364e-10
1.78194e-14
6.25303e-07
6.60761e-07
3.5138e-07
1.43238e-07
6.2075e-08
1.18825e-08
2.6559e-07
1.22144e-11
3.36583e-14
3.37996e-15
1.51292e-15
1.48001e-14
8.97201e-10
2.54559e-09
1.85559e-07
2.36406e-07
2.34853e-07
2.05241e-07
3.11736e-08
1.16486e-07
2.91752e-07
1.70669e-06
5.92056e-07
3.92608e-07
4.12212e-07
3.76483e-07
3.32281e-07
2.86809e-07
2.40904e-07
2.21516e-07
2.25817e-07
2.0661e-07
2.23704e-07
2.19353e-07
2.16298e-07
2.15071e-07
2.18647e-07
2.22275e-07
1.85819e-07
1.61437e-07
1.42677e-07
7.84643e-07
1.08022e-07
9.66833e-08
1.02161e-07
1.10294e-07
1.12959e-07
1.35245e-07
2.71116e-08
9.92191e-08
9.92474e-08
1.48211e-09
7.06517e-08
6.08711e-08
4.74152e-08
3.42972e-08
2.38495e-08
1.53182e-08
8.79621e-09
4.15769e-09
4.80573e-09
2.34381e-09
5.46111e-12
2.16239e-10
1.38311e-09
8.52494e-10
8.34463e-10
8.13324e-10
7.89078e-10
7.70744e-10
4.7831e-09
4.62364e-09
4.56631e-09
4.83414e-09
7.57577e-10
7.67266e-10
7.857e-10
8.02689e-10
8.05095e-10
7.9574e-10
2.19209e-07
5.32715e-09
4.47419e-09
3.66771e-09
3.06148e-09
2.78443e-09
2.55879e-09
2.49814e-09
2.51668e-09
2.40722e-09
2.18472e-09
1.94823e-09
1.00769e-06
1.37124e-09
1.1682e-09
1.06439e-09
9.84305e-10
8.87974e-10
7.32638e-10
2.039e-16
1.20279e-08
2.60056e-07
4.47234e-07
5.33384e-08
1.90169e-08
2.84126e-07
1.9107e-07
6.49178e-08
1.44067e-14
1.1649e-15
8.57748e-15
6.40471e-08
4.61411e-11
9.27864e-11
6.44813e-11
2.48498e-10
1.91172e-09
1.03431e-08
4.82715e-08
1.49244e-06
3.84113e-07
4.36692e-07
3.94813e-07
3.80536e-07
2.32423e-07
2.53738e-07
3.28473e-07
3.54147e-07
2.5931e-07
2.25338e-07
2.08708e-07
2.17304e-07
2.05146e-07
1.97257e-07
1.91572e-07
2.15873e-07
1.87745e-07
1.85481e-07
1.80441e-07
7.46037e-07
1.32482e-07
1.13459e-07
9.37917e-08
9.47904e-08
9.76721e-08
1.95741e-07
1.24244e-07
1.20372e-07
1.05538e-07
8.68737e-08
7.59337e-08
2.80672e-09
5.56999e-08
4.71093e-08
3.55827e-08
2.48591e-08
2.97116e-08
1.10425e-08
6.15547e-09
2.7917e-09
3.6624e-09
7.63712e-12
4.94667e-10
2.32354e-08
8.69567e-10
8.35698e-10
8.17331e-10
7.9989e-10
7.78819e-10
7.61067e-10
4.54109e-09
4.41476e-09
4.40879e-09
4.64602e-09
5.05489e-09
7.60026e-10
7.79618e-10
7.95516e-10
2.06068e-07
7.90279e-10
7.87495e-10
5.09052e-09
4.28323e-09
3.60994e-09
3.02418e-09
2.75963e-09
5.87318e-07
2.50163e-09
2.52821e-09
2.38569e-09
2.16417e-09
1.92332e-09
1.63419e-09
1.35478e-09
1.15926e-09
1.05462e-09
9.76071e-10
8.68193e-10
7.2613e-10
6.87999e-08
3.06901e-07
3.9777e-07
3.69556e-08
1.0521e-08
1.59112e-09
1.88456e-07
8.06825e-12
5.17162e-14
2.63533e-15
4.07705e-08
7.06313e-08
8.3318e-11
1.40196e-07
6.47766e-11
1.16897e-10
1.1781e-09
6.96545e-09
2.48467e-08
7.95667e-08
2.21055e-07
1.92124e-06
4.39072e-07
5.00213e-07
3.98094e-07
3.93483e-07
3.66379e-07
3.23234e-07
2.92753e-07
2.57253e-07
5.30641e-07
2.16611e-07
2.06465e-07
1.96622e-07
1.85481e-07
8.42624e-07
1.94304e-07
1.89636e-07
1.6457e-07
1.52752e-07
1.31609e-07
1.25084e-07
1.10913e-07
9.27546e-08
9.11526e-08
9.03032e-08
9.80962e-08
9.00332e-08
1.0348e-07
8.82031e-08
7.14094e-08
5.73761e-08
1.31694e-08
4.01227e-08
3.33934e-08
2.50987e-08
1.75195e-08
1.17474e-08
7.59301e-09
8.26271e-09
4.76224e-09
1.74939e-08
2.52284e-08
3.02232e-10
6.31726e-11
8.53254e-10
8.17585e-10
7.97693e-10
7.86602e-10
3.51772e-07
4.44741e-07
4.32586e-09
4.20004e-09
4.21745e-09
4.71157e-07
4.76855e-09
5.21979e-09
7.7198e-10
7.88106e-10
2.33348e-07
7.84176e-10
7.77472e-10
4.82324e-09
4.11177e-09
5.49027e-07
2.98247e-09
2.73055e-09
2.54926e-09
2.51716e-09
2.53908e-09
2.37625e-09
2.14102e-09
1.89794e-09
1.60497e-09
1.33669e-09
1.149e-09
1.04342e-09
9.66404e-10
8.50821e-10
7.18926e-10
9.51375e-18
1.8916e-10
3.00163e-07
3.00185e-07
6.47857e-10
2.8319e-11
3.67583e-12
7.9974e-14
3.33945e-15
1.23421e-14
6.24243e-08
1.22643e-07
3.39785e-07
5.44937e-09
2.57859e-07
2.56144e-07
2.34965e-07
2.42032e-08
8.98151e-07
1.39089e-07
2.64747e-07
4.09094e-07
4.10798e-07
3.65791e-07
2.53979e-07
1.65209e-07
3.57477e-07
3.37631e-07
2.68621e-07
2.65696e-07
2.45346e-07
2.36289e-07
2.26844e-07
2.18952e-07
2.03591e-07
1.85592e-07
7.59099e-07
1.73314e-07
1.62214e-07
7.17966e-07
1.29067e-07
1.1086e-07
9.88621e-08
9.18524e-08
8.6624e-08
8.20898e-08
8.11593e-08
7.65652e-08
8.48461e-08
6.99069e-08
6.02836e-08
4.37656e-08
3.38308e-08
2.67053e-08
3.71359e-08
1.63591e-08
1.12177e-08
7.8197e-09
4.97772e-09
6.10515e-09
1.86757e-08
8.97617e-08
1.79763e-11
2.67624e-08
1.3913e-09
8.31982e-10
7.97942e-10
7.77646e-10
2.8089e-07
7.48773e-10
4.59604e-09
4.08291e-09
3.96201e-09
3.99928e-09
4.28248e-09
4.5225e-09
4.96483e-09
7.63361e-10
2.76286e-07
7.79724e-10
3.20122e-07
3.79904e-07
4.56837e-09
3.94606e-09
5.56892e-07
2.93185e-09
2.6976e-09
2.54159e-09
2.53245e-09
2.53822e-09
2.37165e-09
2.1156e-09
1.86351e-09
1.57223e-09
1.31713e-09
1.13748e-09
1.03109e-09
9.53971e-10
8.3511e-10
7.11057e-10
3.30226e-19
3.03085e-12
3.72702e-10
2.19476e-07
8.36727e-12
8.51566e-14
1.26768e-07
3.14866e-15
3.78867e-08
7.94066e-08
4.8253e-12
1.96777e-07
5.01433e-08
8.44683e-07
1.54764e-08
8.25409e-09
1.4692e-08
5.95355e-08
1.30152e-06
1.48699e-06
1.60821e-06
4.10776e-07
3.89201e-07
3.48066e-07
3.5456e-07
1.98379e-07
3.49271e-07
3.30678e-07
2.97369e-07
2.74235e-07
2.66623e-07
2.56793e-07
2.8658e-07
3.57557e-07
5.13528e-07
2.18731e-07
2.00978e-07
1.83936e-07
1.71668e-07
1.52125e-07
1.28857e-07
1.12275e-07
9.9868e-08
9.00011e-08
8.53819e-08
7.61971e-08
6.88981e-08
6.22991e-08
6.59614e-08
5.24086e-08
4.44067e-08
3.71349e-08
2.38297e-08
1.87965e-08
1.43444e-08
1.0859e-08
7.80714e-08
8.45881e-08
6.79415e-09
4.39238e-09
2.60494e-09
1.3327e-11
1.81669e-10
6.82981e-11
6.83158e-08
1.34907e-07
7.77577e-10
7.56332e-10
3.9704e-07
4.72213e-09
4.22046e-09
3.82708e-09
3.72476e-09
3.77702e-09
4.02533e-09
4.3242e-09
4.80205e-07
4.28129e-07
7.69125e-10
7.675e-10
7.64583e-10
5.27608e-09
4.35688e-09
3.78176e-09
3.31722e-09
2.98208e-09
2.66051e-09
2.52749e-09
2.54709e-09
2.53689e-09
2.3664e-09
2.08265e-09
1.82958e-09
1.54083e-09
1.29606e-09
1.12477e-09
1.0179e-09
9.40234e-10
8.20498e-10
7.02582e-10
1.28333e-20
9.25416e-08
1.13835e-07
3.62334e-08
4.73877e-14
7.96074e-15
2.49676e-15
5.59529e-08
5.75428e-08
9.72637e-08
1.81805e-07
1.38869e-07
1.47675e-06
1.39352e-06
6.36019e-08
2.34594e-08
6.27813e-07
8.56718e-08
2.17045e-07
3.19737e-07
3.79821e-07
4.1173e-07
3.74611e-07
3.31291e-07
3.28503e-07
3.63574e-07
3.373e-07
3.21038e-07
3.08357e-07
2.80656e-07
2.73401e-07
2.82201e-07
2.85527e-07
2.75469e-07
2.66713e-07
3.42203e-07
2.42388e-07
4.05174e-07
1.91025e-07
5.12207e-07
1.36084e-07
1.17722e-07
1.0342e-07
9.07428e-08
8.08782e-08
6.88561e-08
5.58776e-08
4.87512e-08
1.02386e-07
3.72819e-08
3.09475e-08
2.57105e-08
2.11524e-08
1.2265e-08
9.69954e-08
6.86437e-09
6.98017e-08
6.94063e-09
4.80296e-09
3.05629e-09
2.73333e-11
5.25788e-08
2.21371e-10
1.39283e-09
8.21737e-10
7.78876e-10
7.56547e-10
7.34527e-10
4.85831e-09
5.08185e-07
3.85797e-09
3.58604e-09
3.51406e-09
3.58955e-09
3.77547e-09
4.08772e-09
4.44736e-09
5.02125e-09
7.58186e-10
4.23367e-07
5.26688e-09
4.87765e-09
4.14686e-09
3.64839e-09
3.17325e-09
2.91384e-09
2.61844e-09
2.51247e-09
2.54504e-09
7.48692e-07
2.35774e-09
2.04872e-09
1.79097e-09
1.5103e-09
1.27206e-09
1.10945e-09
1.0035e-09
9.25488e-10
8.0067e-10
6.92856e-10
1.03283e-08
1.15803e-07
1.27874e-07
1.25363e-07
4.98264e-14
4.59712e-08
2.40363e-13
8.03692e-08
1.1437e-07
1.43521e-07
2.26028e-07
4.77347e-09
1.47803e-07
1.92625e-06
1.33272e-07
3.97012e-08
3.97115e-08
1.01045e-07
3.15016e-07
2.05962e-06
4.02945e-07
3.70371e-07
5.34672e-07
3.15024e-07
3.1394e-07
2.15258e-07
1.57888e-07
3.08885e-07
3.13428e-07
1.91249e-07
2.98675e-07
2.89806e-07
2.78395e-07
2.68512e-07
2.57423e-07
2.89816e-07
2.51475e-07
2.61702e-07
3.52133e-07
1.79847e-07
1.44626e-07
1.22181e-07
1.05239e-07
9.11483e-08
7.79224e-08
6.0165e-08
4.59881e-08
3.643e-08
3.23929e-08
2.57084e-08
1.35925e-07
1.3802e-07
1.37705e-07
1.25022e-08
9.9606e-09
8.25645e-09
6.40561e-09
4.84881e-09
3.29075e-09
1.11063e-11
3.31442e-12
3.26699e-08
6.59953e-11
8.34575e-10
7.88091e-10
7.49244e-10
4.4616e-07
5.06891e-07
4.24612e-09
3.8931e-09
3.58031e-09
3.34922e-09
3.30736e-09
3.40072e-09
3.58029e-09
3.84352e-09
4.22188e-09
4.63731e-09
5.24451e-09
5.08063e-09
4.90333e-09
4.54445e-09
3.9372e-09
3.51303e-09
3.06823e-09
2.84002e-09
2.57328e-09
2.49448e-09
2.54051e-09
2.53457e-09
2.33652e-09
9.13151e-07
1.74506e-09
1.48102e-09
1.24407e-09
1.09131e-09
9.88045e-10
9.0982e-10
7.85351e-10
6.82126e-10
1.19084e-08
1.48087e-17
5.33338e-16
1.38952e-13
2.85491e-12
1.21888e-07
2.60548e-11
1.56852e-07
9.96751e-10
4.15206e-09
7.34922e-09
2.49782e-08
1.75579e-07
5.22656e-07
1.52678e-07
5.42298e-08
6.10526e-08
1.29589e-07
2.94487e-07
3.87907e-07
4.10494e-07
3.67095e-07
4.56522e-07
2.97356e-07
2.98278e-07
2.59745e-07
3.1258e-07
2.9683e-07
1.2708e-07
3.13009e-07
1.45411e-07
3.27423e-07
3.44643e-07
3.30999e-07
2.90533e-07
2.76943e-07
2.89048e-07
2.75191e-07
2.15999e-07
1.83407e-07
2.69396e-07
3.00749e-07
1.07595e-07
9.08955e-08
1.87873e-07
4.77024e-08
3.40593e-08
2.19862e-07
1.59768e-08
1.74911e-08
1.79457e-07
1.12969e-08
9.46446e-09
8.28322e-09
8.3139e-08
6.22022e-08
4.46335e-09
1.25647e-08
5.64459e-12
8.13797e-12
1.0155e-10
5.22984e-08
8.81428e-08
8.01193e-10
2.59326e-07
7.19533e-10
5.04481e-07
3.95009e-09
3.77167e-09
3.5423e-09
3.28816e-09
3.12869e-09
3.1142e-09
3.21013e-09
3.39099e-09
3.63608e-09
3.96258e-09
4.36494e-09
4.7422e-07
4.68873e-09
4.55442e-09
4.87311e-07
3.73878e-09
3.3774e-09
2.96587e-09
2.77945e-09
2.5288e-09
2.47041e-09
2.53724e-09
2.49739e-09
8.338e-07
1.99825e-09
1.69874e-09
1.45102e-09
1.21498e-09
1.07209e-09
9.70971e-10
8.88781e-10
7.70178e-10
6.71045e-10
1.00618e-17
6.14902e-08
1.38972e-14
1.20048e-07
2.42553e-07
2.50453e-09
3.33471e-09
2.95773e-07
5.26333e-07
1.41526e-06
6.57673e-08
1.48159e-06
2.33599e-07
1.37289e-06
1.57357e-06
8.33977e-08
1.10679e-07
1.52571e-06
1.61679e-06
2.07337e-06
3.6618e-07
5.11941e-07
3.16793e-07
2.89055e-07
2.79495e-07
2.69018e-07
2.63567e-07
2.63843e-07
2.67973e-07
2.76419e-07
2.70187e-07
3.11118e-07
3.26309e-07
1.26624e-07
2.97273e-07
2.83162e-07
2.70763e-07
2.57706e-07
1.75413e-07
1.73563e-07
1.55673e-07
1.25156e-07
1.02455e-07
8.32003e-08
1.6116e-07
3.59066e-08
2.22109e-08
1.3247e-08
8.55793e-09
5.81017e-09
3.50771e-09
2.39639e-09
3.66842e-09
6.55465e-08
7.61864e-08
3.83785e-09
3.06593e-09
1.76855e-07
9.20434e-12
9.89158e-11
4.76949e-11
5.64645e-11
1.19108e-07
7.65249e-10
7.22287e-10
3.97331e-09
3.80052e-09
3.48428e-09
3.39581e-09
3.20981e-09
3.05202e-09
2.95862e-09
2.96133e-09
3.04888e-09
3.20546e-09
3.44413e-09
3.71604e-09
4.0998e-09
4.5188e-09
4.39892e-09
4.32038e-09
4.0776e-09
3.57478e-09
5.67992e-07
2.97313e-09
5.40705e-07
5.93887e-07
2.44512e-09
2.51863e-09
2.45939e-09
2.27952e-09
1.96819e-09
1.65178e-09
1.41554e-09
1.18539e-09
1.05194e-09
9.5076e-10
8.67838e-10
7.54939e-10
6.59847e-10
1.27539e-07
1.07286e-12
1.45515e-11
1.9505e-07
2.2787e-06
6.8005e-08
7.52064e-07
1.01896e-07
1.40429e-06
2.10963e-07
1.44523e-06
1.4851e-06
2.58991e-07
1.38409e-06
1.48731e-06
1.34947e-07
1.92289e-07
1.53528e-06
3.60436e-07
1.8691e-06
3.52939e-07
3.09163e-07
4.48768e-07
2.53557e-07
2.56998e-07
2.37539e-07
2.39485e-07
2.32678e-07
2.23204e-07
2.40349e-07
2.49645e-07
2.41341e-07
1.64822e-07
2.64755e-07
1.41022e-07
2.60182e-07
2.4973e-07
9.06487e-08
1.37653e-07
1.60923e-07
1.43006e-07
1.19668e-07
9.38827e-08
6.85065e-08
4.37476e-08
2.37131e-08
1.26731e-08
6.64474e-09
3.01029e-09
8.50061e-08
2.63129e-10
4.71997e-10
2.28356e-10
1.13074e-10
2.00843e-11
1.84288e-07
1.07709e-11
2.6529e-10
1.06802e-10
6.15864e-08
1.33693e-09
8.03096e-10
7.67049e-10
7.29138e-10
4.05115e-09
3.52869e-09
3.3139e-09
3.11979e-09
5.99887e-07
2.96744e-09
2.9655e-09
2.89402e-09
2.91475e-09
2.90598e-09
3.04876e-09
3.25561e-09
3.5155e-09
3.81014e-09
5.11159e-07
4.15167e-09
4.08377e-09
3.81925e-09
3.41374e-09
3.09693e-09
2.85689e-09
2.66928e-09
2.50402e-09
2.46678e-09
2.48547e-09
2.41369e-09
8.58362e-07
1.93017e-09
1.61404e-09
1.38019e-09
1.16515e-09
1.0315e-09
9.29775e-10
8.46922e-10
7.39623e-10
6.48098e-10
1.5296e-08
1.81322e-09
2.76868e-09
1.863e-06
1.46451e-06
1.60336e-06
1.77725e-07
1.50424e-06
1.4896e-06
2.91823e-07
3.06166e-07
1.45123e-06
3.52925e-07
3.89987e-07
2.75179e-07
1.44684e-06
2.59451e-07
3.01132e-07
3.44095e-07
3.70586e-07
5.99413e-07
4.4817e-07
2.39864e-07
4.29041e-07
3.38399e-07
2.94071e-07
3.11896e-07
1.88292e-07
1.80439e-07
1.87748e-07
2.28683e-07
2.032e-07
1.90698e-07
1.81981e-07
1.86344e-07
1.1728e-07
1.12323e-07
2.17054e-07
1.87948e-07
1.50089e-07
1.2494e-07
1.00308e-07
1.29854e-07
4.89403e-08
2.47424e-07
1.29876e-08
2.4391e-07
1.98131e-09
4.68435e-10
1.7337e-07
1.96207e-11
9.67367e-11
1.43438e-10
1.87399e-10
2.01421e-10
2.22806e-10
1.48263e-10
5.85985e-08
6.55101e-08
1.26047e-09
1.51339e-07
2.22497e-07
7.16925e-10
4.1013e-09
3.47195e-09
3.08052e-09
2.88554e-09
2.79204e-09
2.88254e-09
2.80947e-09
2.74297e-09
2.72148e-09
2.73962e-09
2.83256e-09
5.20068e-07
3.05172e-09
3.29064e-09
5.81493e-07
3.8797e-09
5.42629e-07
3.77774e-09
3.58575e-09
3.22413e-09
2.95064e-09
2.74003e-09
5.72954e-07
2.48158e-09
2.496e-09
2.47979e-09
8.00291e-07
2.14499e-09
1.87807e-09
1.57213e-09
1.33813e-09
1.14024e-09
1.00625e-09
9.0385e-10
8.20537e-10
7.21294e-10
6.33661e-10
2.4174e-08
2.70028e-08
5.82515e-08
1.66589e-07
3.16828e-07
2.20188e-07
2.69333e-07
3.57731e-07
3.41451e-07
3.43032e-07
1.43085e-06
1.40708e-06
1.36251e-06
4.31408e-07
1.43932e-06
3.0909e-07
3.15528e-07
1.48963e-06
1.83912e-06
3.30071e-07
2.65261e-07
2.37725e-07
1.96217e-07
1.84789e-07
3.47743e-07
3.4728e-07
3.56709e-07
1.5037e-07
3.77438e-07
1.35753e-07
1.29133e-07
1.29029e-07
1.25532e-07
1.2527e-07
1.31522e-07
1.37889e-07
1.35367e-07
1.33424e-07
1.5196e-07
1.20561e-07
1.3142e-07
1.04185e-07
1.39165e-07
2.89956e-08
1.25117e-08
4.87174e-09
5.93553e-10
4.22682e-13
3.89673e-10
8.79608e-10
8.18313e-11
4.48694e-08
4.58749e-08
4.63348e-08
5.653e-11
4.77015e-11
6.34562e-08
1.03023e-07
7.99541e-10
2.00231e-07
2.86094e-07
4.58603e-07
3.64835e-09
3.392e-09
2.9933e-09
2.69222e-09
2.62768e-09
2.605e-09
2.61797e-09
2.6245e-09
2.59824e-09
2.58641e-09
2.61382e-09
2.67948e-09
2.78063e-09
2.85994e-09
3.0381e-09
3.22346e-09
3.48578e-09
3.49824e-09
3.49843e-09
3.33373e-09
3.04031e-09
2.88721e-09
2.64536e-09
2.48714e-09
2.4475e-09
2.49389e-09
2.48266e-09
2.30671e-09
2.03328e-09
1.80477e-09
1.52065e-09
1.28897e-09
1.10685e-09
9.7444e-10
8.72858e-10
7.94606e-10
6.98396e-10
6.16168e-10
6.95406e-08
2.24205e-08
1.92892e-07
2.47666e-07
2.54244e-07
1.87438e-07
1.47855e-07
1.81465e-07
2.35764e-07
3.0045e-07
1.7663e-06
4.43264e-07
4.61963e-07
1.32272e-06
1.38895e-06
1.39312e-06
3.58271e-07
3.43397e-07
1.53948e-06
2.60556e-07
8.93934e-07
1.92325e-07
1.74752e-07
1.44928e-07
4.31146e-07
1.26837e-07
1.15486e-07
1.08777e-07
4.7415e-07
8.75889e-08
4.12136e-07
4.10291e-07
8.02537e-08
8.11946e-08
3.62705e-07
8.4073e-08
8.85748e-08
9.48184e-08
9.40317e-08
1.73521e-07
7.10402e-08
4.94635e-08
2.80502e-08
3.23792e-07
4.41899e-09
4.01258e-10
8.76971e-11
6.49157e-10
7.58406e-10
8.18919e-10
8.34286e-10
7.0874e-08
8.41916e-10
8.42275e-08
8.25205e-10
1.07705e-07
1.185e-07
1.83696e-07
7.33306e-10
7.01112e-10
6.69612e-10
3.24918e-09
3.01527e-09
2.88258e-09
5.73924e-07
2.50277e-09
2.42864e-09
2.4174e-09
6.13686e-07
6.07284e-07
2.47646e-09
2.48096e-09
2.48406e-09
2.55412e-09
2.64409e-09
2.76043e-09
2.83155e-09
2.96766e-09
3.14418e-09
3.19638e-09
3.20211e-09
3.09604e-09
5.29314e-07
2.72168e-09
2.54327e-09
2.47092e-09
2.41815e-09
2.46933e-09
2.46281e-09
8.34215e-07
1.96382e-09
1.71314e-09
1.47043e-09
1.22925e-09
1.06941e-09
9.37776e-10
8.40567e-10
7.69715e-10
6.75216e-10
5.97544e-10
7.93485e-08
5.67847e-08
1.52151e-07
2.19157e-07
1.64735e-07
7.38397e-08
3.61896e-08
1.22343e-08
4.97607e-08
1.41337e-07
2.72017e-07
3.83664e-07
4.50442e-07
4.91299e-07
1.37664e-06
4.14984e-07
3.72485e-07
1.91283e-06
2.96438e-07
2.21483e-07
1.7938e-07
8.13491e-07
7.45348e-07
5.10731e-07
4.70075e-07
8.96542e-08
7.68981e-08
7.2675e-08
5.96542e-08
5.28905e-08
5.26051e-07
4.20016e-08
4.25267e-08
4.53129e-07
4.82014e-08
5.48498e-08
3.60465e-07
6.33596e-08
6.08129e-08
5.49716e-08
4.15324e-08
2.88128e-07
1.31422e-08
4.97406e-09
3.08355e-07
2.11337e-07
2.18164e-07
7.67109e-10
7.57619e-10
7.59369e-10
7.72538e-10
1.75033e-07
1.73725e-07
7.7543e-10
7.6278e-10
7.5198e-10
7.37624e-10
7.04624e-10
6.73399e-10
3.18778e-09
2.91846e-09
6.18622e-07
2.58731e-09
5.84667e-07
2.43211e-09
2.3537e-09
2.36149e-09
2.38376e-09
2.41254e-09
2.43771e-09
6.30784e-07
2.4536e-09
2.46055e-09
2.47177e-09
2.5173e-09
2.63491e-09
2.72308e-09
2.8559e-09
2.89239e-09
5.65096e-07
2.96798e-09
2.9082e-09
2.7916e-09
2.61686e-09
2.46643e-09
2.43673e-09
2.46164e-09
2.43888e-09
2.39563e-09
2.15716e-09
1.88779e-09
1.62272e-09
1.40191e-09
1.17788e-09
1.03193e-09
9.00396e-10
8.08223e-10
7.44252e-10
6.52173e-10
5.77393e-10
7.98509e-08
8.03977e-08
1.79457e-07
2.24728e-07
2.30421e-07
2.79583e-07
2.57751e-07
1.30542e-07
3.26419e-08
4.59223e-09
9.39856e-08
1.38693e-06
3.85832e-07
1.63098e-06
4.52189e-07
4.11989e-07
3.62621e-07
2.72166e-07
2.23759e-07
1.79708e-07
1.36783e-07
1.40481e-06
9.27659e-08
8.20967e-08
6.18135e-08
5.39393e-08
4.36637e-08
6.3572e-07
3.64529e-08
5.96021e-07
2.5829e-08
2.4408e-08
5.22626e-07
2.19601e-08
4.96689e-07
3.17002e-08
3.55224e-08
3.88407e-08
4.01955e-08
3.29683e-08
2.08515e-08
1.10457e-08
4.40813e-09
3.47458e-07
1.01951e-10
6.88964e-10
4.37741e-09
3.88033e-09
3.92539e-09
4.05456e-09
4.67173e-07
4.49111e-07
4.31464e-07
7.10641e-10
4.61153e-07
6.86549e-10
3.71087e-09
5.44221e-07
2.94966e-09
2.70217e-09
2.49957e-09
2.41939e-09
2.35285e-09
2.31961e-09
2.30782e-09
2.28646e-09
2.34992e-09
2.38854e-09
2.40777e-09
2.41017e-09
2.40683e-09
2.39673e-09
2.40725e-09
2.43893e-09
2.45999e-09
2.51297e-09
5.70684e-07
2.66483e-09
2.75909e-09
2.83939e-09
2.85877e-09
2.81134e-09
5.66139e-07
2.49623e-09
2.44383e-09
2.38649e-09
2.46409e-09
2.44113e-09
2.29535e-09
2.04446e-09
1.80056e-09
1.56128e-09
1.33368e-09
1.13455e-09
9.94208e-10
8.62567e-10
7.79789e-10
7.17047e-10
6.28872e-10
5.57109e-10
7.99536e-08
8.28375e-08
1.39401e-07
2.4311e-07
3.16623e-07
3.59395e-07
4.07158e-07
3.80939e-07
1.75551e-07
3.07459e-08
2.95693e-10
8.68512e-08
2.21006e-07
3.29931e-07
3.52791e-07
3.28779e-07
2.82371e-07
9.24786e-07
1.78061e-07
1.33979e-07
9.68407e-08
7.1652e-08
5.68647e-08
4.60338e-08
3.68718e-08
7.58389e-07
2.44189e-08
1.96113e-08
1.49296e-08
1.20662e-08
9.24895e-09
8.0697e-09
9.18651e-09
1.16317e-08
1.56222e-08
1.54329e-08
1.97026e-08
4.21905e-07
2.12287e-08
1.64495e-08
8.51392e-09
3.19914e-09
3.612e-07
2.6979e-11
6.30791e-10
3.75816e-09
5.52984e-07
3.05776e-09
3.06752e-09
3.19605e-09
3.4672e-09
3.53439e-09
3.50251e-09
3.48353e-09
3.29033e-09
3.06461e-09
2.90369e-09
2.7089e-09
2.52614e-09
2.38683e-09
2.25316e-09
2.18996e-09
2.21105e-09
2.22725e-09
6.7647e-07
2.29912e-09
2.29502e-09
2.33931e-09
2.39302e-09
2.43452e-09
2.44373e-09
2.44333e-09
2.43082e-09
2.38887e-09
2.42043e-09
2.44962e-09
2.47046e-09
2.53632e-09
2.60446e-09
2.64411e-09
2.67185e-09
2.65907e-09
2.5293e-09
2.44537e-09
2.40233e-09
2.43659e-09
2.41533e-09
7.66478e-07
2.24426e-09
1.94803e-09
1.69584e-09
1.48564e-09
1.25633e-09
1.08173e-09
9.42823e-10
8.2349e-10
7.50659e-10
6.88182e-10
6.04279e-10
5.36496e-10
8.00888e-08
8.05798e-08
9.57065e-08
1.56171e-07
1.95571e-07
1.84113e-07
2.3619e-07
3.75047e-07
3.6237e-07
1.31144e-07
1.22368e-08
2.03523e-09
8.24181e-08
1.23963e-06
2.56265e-07
5.31972e-07
5.44813e-07
1.68353e-07
1.0548e-06
8.40152e-08
1.67539e-06
4.53783e-08
3.19935e-08
2.0093e-08
1.52688e-06
1.47402e-06
7.7448e-09
7.68621e-07
4.19769e-09
2.88531e-09
1.91853e-09
1.39468e-09
5.63012e-07
2.48043e-09
4.52193e-09
7.21501e-09
3.59285e-07
9.25066e-09
8.64745e-09
3.50313e-07
2.07235e-09
3.7307e-07
6.23612e-11
2.59786e-09
3.21941e-09
2.894e-09
2.71697e-09
2.60132e-09
2.61295e-09
2.71104e-09
5.86315e-07
2.73162e-09
2.73049e-09
6.12332e-07
6.12191e-07
2.53814e-09
2.47006e-09
2.33708e-09
5.97547e-07
2.1542e-09
2.10428e-09
2.0983e-09
2.16427e-09
2.20978e-09
2.22159e-09
2.23667e-09
2.24651e-09
2.30741e-09
2.35895e-09
2.38342e-09
7.18627e-07
2.38292e-09
2.40959e-09
2.42083e-09
2.39131e-09
2.41082e-09
2.42994e-09
2.43395e-09
2.46924e-09
2.50602e-09
5.9594e-07
5.99594e-07
2.43741e-09
2.41097e-09
2.39146e-09
2.43084e-09
2.4156e-09
2.30948e-09
2.1552e-09
1.86461e-09
1.59789e-09
1.40501e-09
1.18392e-09
1.03133e-09
8.94166e-10
7.91173e-10
7.19785e-10
6.5728e-10
5.78606e-10
5.18318e-10
8.02036e-08
7.82293e-08
7.43212e-08
8.33347e-08
8.4061e-08
7.1123e-08
9.91639e-08
2.15807e-07
3.55839e-07
2.64678e-07
6.33356e-08
4.14009e-09
9.37485e-09
8.22939e-08
1.38499e-07
1.48464e-07
1.19769e-07
9.44271e-08
6.13317e-08
4.71173e-08
3.12794e-08
1.86202e-08
1.22799e-06
8.2048e-09
5.06061e-09
8.21701e-07
1.62982e-09
6.76939e-07
4.88644e-10
4.61897e-10
9.31062e-10
1.61559e-09
1.70405e-09
1.4906e-09
1.02383e-09
8.75575e-10
1.30064e-09
2.19588e-09
1.75844e-09
9.24841e-10
6.68816e-11
1.26055e-09
2.55411e-09
2.95398e-09
2.60204e-09
5.55869e-07
2.35495e-09
2.33498e-09
2.35793e-09
2.36748e-09
6.02863e-07
2.37614e-09
2.3708e-09
2.38804e-09
2.33033e-09
2.23588e-09
2.15623e-09
2.11502e-09
2.08685e-09
6.51889e-07
2.03225e-09
2.02137e-09
2.06958e-09
2.10851e-09
2.0806e-09
2.06081e-09
2.08345e-09
2.14343e-09
2.22427e-09
2.30633e-09
2.35758e-09
2.36531e-09
2.35744e-09
2.36824e-09
2.40935e-09
2.38468e-09
2.3808e-09
2.4065e-09
2.42057e-09
2.42337e-09
2.42633e-09
6.24002e-07
2.40855e-09
2.36458e-09
2.41895e-09
2.37385e-09
2.3889e-09
2.24068e-09
2.02915e-09
1.76869e-09
1.51722e-09
1.32219e-09
1.12859e-09
9.79215e-10
8.46268e-10
7.58462e-10
6.87945e-10
6.27387e-10
5.53202e-10
4.98285e-10
8.01635e-08
7.35625e-08
6.2354e-08
5.22294e-08
3.98696e-08
2.74234e-08
3.92057e-08
1.06574e-07
2.4198e-07
2.9983e-07
1.49362e-07
2.62112e-08
1.75141e-09
1.33686e-08
4.20135e-08
5.90382e-08
1.46517e-06
1.40618e-06
3.07257e-08
1.29345e-06
8.83153e-09
4.28728e-09
2.15742e-09
1.23605e-09
8.16684e-10
2.33444e-11
3.83682e-07
9.91196e-10
2.64927e-07
1.24657e-09
1.03344e-09
1.5157e-09
2.68972e-07
2.18114e-09
2.30925e-09
1.49951e-09
7.47194e-10
4.05822e-07
8.54004e-10
4.77933e-07
1.32465e-09
1.99169e-09
2.65511e-09
5.22528e-07
2.21594e-09
2.14975e-09
6.41148e-07
2.17474e-09
6.57846e-07
2.2486e-09
6.47474e-07
2.17282e-09
2.15948e-09
2.16514e-09
6.41436e-07
2.05188e-09
2.01797e-09
2.00402e-09
1.97749e-09
1.93688e-09
1.90085e-09
1.87031e-09
1.87574e-09
7.66241e-07
1.88761e-09
1.87602e-09
1.89848e-09
1.99355e-09
2.09043e-09
2.16263e-09
2.19926e-09
2.26507e-09
2.29901e-09
2.34028e-09
2.34455e-09
2.40212e-09
2.39464e-09
2.35127e-09
2.37587e-09
2.39038e-09
2.39912e-09
2.40099e-09
6.6382e-07
2.40891e-09
2.38525e-09
2.38166e-09
2.28691e-09
2.16214e-09
1.92424e-09
1.64757e-09
1.43701e-09
1.23126e-09
1.06637e-09
9.23629e-10
8.06172e-10
7.2392e-10
6.56775e-10
5.959e-10
5.30979e-10
4.77648e-10
7.96845e-08
6.48617e-08
4.51839e-08
3.03138e-08
1.62585e-08
8.84381e-09
1.60773e-08
5.44404e-08
1.50355e-07
2.48557e-07
2.04019e-07
7.29173e-08
1.22153e-08
4.14866e-10
6.69643e-09
1.04543e-06
1.8657e-08
1.22046e-08
1.09791e-06
2.45661e-09
7.57008e-10
3.24977e-10
1.55543e-10
3.16714e-07
3.09926e-11
1.43576e-10
4.0052e-10
1.34244e-09
3.07683e-07
9.17447e-10
5.63155e-10
6.4893e-10
9.33282e-10
1.42684e-09
2.52148e-09
2.6837e-07
2.84768e-09
2.27021e-09
2.14403e-09
5.21496e-07
1.78364e-09
4.97214e-07
2.10272e-09
5.96587e-07
6.451e-07
1.82451e-09
1.83656e-09
1.88724e-09
1.99465e-09
6.9934e-07
2.0442e-09
2.00062e-09
1.99114e-09
2.01006e-09
1.97596e-09
1.91212e-09
1.87246e-09
1.8442e-09
1.79172e-09
1.72232e-09
1.67682e-09
1.6525e-09
1.63492e-09
1.65778e-09