/*--------------------------------*- C++ -*----------------------------------*\
  =========                 |
  \\      /  F ield         | OpenFOAM: The Open Source CFD Toolbox
   \\    /   O peration     | Website:  https://openfoam.org
    \\  /    A nd           | Version:  6
     \\/     M anipulation  |
\*---------------------------------------------------------------------------*/
FoamFile
{
    version     2.0;
    format      ascii;
    class       volScalarField;
    location    "0.1";
    object      CH3O;
}
// * * * * * * * * * * * * * * * * * * * * * * * * * * * * * * * * * * * * * //

dimensions      [0 0 0 0 0 0 0];

internalField   nonuniform List<scalar> 
8000
(
1.0474e-09
5.81925e-08
1.2985e-07
2.20873e-07
3.03574e-07
2.44546e-07
1.70217e-07
1.23899e-07
7.34997e-08
2.40576e-08
5.11954e-09
2.95178e-09
9.66874e-09
8.98756e-08
8.60297e-08
9.03594e-08
9.0196e-08
7.88444e-10
7.65193e-08
1.25861e-07
1.17394e-07
6.74585e-08
4.14945e-08
6.7238e-08
1.10947e-07
1.69125e-07
1.9715e-07
1.80162e-07
1.78393e-07
1.67943e-06
3.70614e-09
8.23768e-08
5.03494e-08
3.26042e-08
2.80139e-08
2.80064e-08
2.90407e-08
3.02637e-08
3.68693e-08
4.72938e-08
3.15448e-08
2.0844e-08
1.63766e-08
1.63395e-08
1.97456e-08
2.39931e-08
3.12818e-08
4.80173e-08
9.80651e-08
2.58976e-06
5.69902e-13
1.19978e-07
1.12536e-07
1.06939e-07
9.72469e-08
8.45901e-08
7.01903e-08
5.4633e-08
3.78762e-08
2.20134e-08
1.03299e-08
4.08093e-09
3.21782e-09
2.4455e-13
1.98208e-10
2.88556e-11
5.03316e-10
3.02649e-10
2.65685e-10
2.46934e-10
1.09952e-09
1.97001e-10
1.99913e-10
1.2781e-09
1.34177e-09
2.16509e-10
2.15927e-10
2.27137e-10
2.48387e-10
2.5544e-10
2.31607e-10
2.26358e-10
2.02233e-10
1.14737e-09
8.37031e-10
5.87371e-10
4.77228e-10
3.95711e-10
2.16425e-08
3.03352e-10
2.56138e-10
2.11878e-10
1.79474e-10
1.56802e-10
1.21175e-10
1.06093e-10
9.9712e-11
9.49838e-11
9.21562e-11
8.17004e-11
9.69206e-10
6.50131e-08
1.30946e-07
2.29741e-07
3.56054e-07
2.44037e-07
1.65179e-07
1.20437e-07
6.92689e-08
2.02758e-08
4.22475e-09
3.59379e-09
1.95649e-08
1.21171e-07
1.30187e-07
1.14054e-07
1.41162e-07
1.144e-07
1.08349e-07
1.08319e-07
1.03374e-07
6.35203e-08
4.21403e-08
7.20254e-08
1.16512e-07
1.83613e-07
2.00141e-07
1.79983e-07
1.63359e-07
2.13847e-07
9.35876e-08
6.67373e-08
4.56232e-08
3.26922e-08
3.03243e-08
3.08695e-08
3.16839e-08
3.28714e-08
4.11602e-08
5.78656e-08
3.95363e-08
2.31299e-08
1.78231e-08
1.77087e-08
2.11245e-08
2.53869e-08
3.2303e-08
4.79514e-08
9.6327e-08
9.53087e-08
1.14979e-07
1.15809e-07
1.12553e-07
1.05162e-07
9.5073e-08
8.19885e-08
6.72127e-08
5.15673e-08
3.52647e-08
2.02559e-08
9.52081e-09
3.76558e-09
3.04614e-09
1.22232e-11
5.54054e-11
2.8172e-11
4.96177e-10
3.01235e-10
2.64685e-10
2.44806e-10
2.3078e-10
1.95512e-10
1.99757e-10
1.26456e-09
1.33041e-09
2.16274e-10
2.14965e-10
2.2644e-10
2.47194e-10
2.56031e-10
2.30963e-10
2.26357e-10
2.01637e-10
1.14204e-09
8.39651e-10
5.85924e-10
4.76166e-10
3.95106e-10
3.65176e-10
3.02744e-10
2.55801e-10
2.11588e-10
1.79401e-10
1.56819e-10
1.21006e-10
1.05974e-10
9.9646e-11
9.49373e-11
9.21674e-11
8.16675e-11
1.51571e-09
9.25876e-08
6.50888e-07
2.5137e-07
2.544e-07
1.96956e-07
1.43409e-07
6.37671e-07
7.09265e-07
2.24393e-08
7.59649e-07
4.10296e-09
3.38143e-08
9.43273e-08
1.05357e-07
1.41646e-07
1.32729e-07
1.47037e-07
7.28132e-08
3.14408e-09
7.17181e-08
5.61667e-08
4.438e-08
8.23088e-08
1.26388e-07
2.35546e-07
2.18859e-07
1.79784e-07
1.39481e-07
1.09623e-07
7.36748e-08
5.47603e-08
4.20216e-08
3.42691e-08
3.68844e-08
4.09343e-08
3.99189e-08
4.04726e-08
4.12632e-08
4.28258e-08
3.2135e-08
2.43213e-08
2.03581e-08
2.0316e-08
2.37954e-08
2.84094e-08
3.45979e-08
5.09483e-08
9.43164e-08
1.00517e-07
9.79909e-08
1.15862e-07
1.07998e-07
1.00015e-07
8.96623e-08
7.60047e-08
6.08192e-08
4.55033e-08
3.0346e-08
1.73483e-08
7.99341e-09
3.17055e-09
2.70612e-09
9.19055e-12
7.43454e-11
2.67192e-11
3.20538e-10
2.97927e-10
2.62674e-10
2.40634e-10
2.23277e-10
1.92832e-10
1.73312e-09
1.2343e-09
1.30603e-09
1.77303e-09
2.12854e-10
2.24935e-10
2.44676e-10
9.80349e-10
2.29522e-10
2.26382e-10
2.00254e-10
1.13177e-09
3.47689e-09
5.82659e-10
4.74073e-10
3.93843e-10
3.55463e-10
3.01659e-10
2.55071e-10
2.10954e-10
9.54906e-08
1.04461e-07
1.20633e-10
1.05717e-10
9.95016e-11
9.48348e-11
2.03626e-07
8.15947e-11
3.64606e-09
1.1584e-07
1.68846e-07
2.07871e-07
1.90804e-07
1.55795e-07
1.15483e-07
7.72905e-08
3.11216e-08
5.34874e-09
1.07506e-09
1.50989e-09
1.45829e-08
1.16873e-06
6.3568e-15
1.29166e-07
1.18277e-07
1.34827e-07
1.04356e-07
8.4488e-08
8.12531e-08
5.20685e-08
4.8924e-08
8.59445e-08
1.35779e-07
1.67843e-13
2.62823e-07
1.78814e-07
1.27659e-07
9.03098e-08
6.39095e-08
4.98256e-08
4.22327e-08
3.74147e-08
4.58479e-08
5.14023e-08
5.46159e-08
1.50823e-07
5.05223e-08
4.5332e-08
3.61035e-08
2.9632e-08
2.46496e-08
2.36931e-08
2.4273e-08
2.89635e-08
3.95152e-08
5.48767e-08
9.29167e-08
1.00069e-07
9.64144e-08
1.10033e-07
4.4668e-18
9.11124e-08
8.07739e-08
6.68066e-08
5.1855e-08
3.76408e-08
2.43091e-08
1.30609e-08
6.19148e-09
5.20655e-09
2.26957e-09
5.12383e-12
1.12672e-10
2.49446e-11
3.13295e-10
2.92163e-10
2.60239e-10
2.35182e-10
1.62454e-09
1.31078e-09
1.32131e-09
1.187e-09
1.27016e-09
2.06658e-10
2.09642e-10
2.22717e-10
2.41101e-10
2.45718e-10
2.27225e-10
2.26494e-10
1.9796e-10
1.1196e-09
8.02242e-10
5.77429e-10
4.70964e-10
3.92006e-10
3.48559e-10
3.00224e-10
2.53975e-10
2.1001e-10
1.77729e-10
1.52166e-10
1.2005e-10
1.05332e-10
9.92837e-11
9.46789e-11
9.08862e-11
8.14795e-11
2.60183e-09
1.17792e-07
1.53097e-10
2.35514e-07
1.64144e-07
1.27973e-07
8.63561e-08
3.97673e-08
8.99364e-09
1.09752e-09
5.93961e-07
5.98581e-07
6.56967e-07
1.38246e-07
1.29749e-07
1.3434e-07
9.32847e-08
1.26107e-07
1.43376e-07
1.16744e-07
7.91958e-08
4.78797e-08
6.1234e-08
1.04948e-07
1.47292e-07
2.34755e-07
2.13962e-07
1.63704e-07
1.18898e-07
8.58653e-08
6.21614e-08
5.13536e-08
4.67079e-08
4.18056e-08
4.35158e-08
4.6167e-08
4.6091e-08
4.91211e-08
5.41939e-08
1.10857e-07
4.46778e-08
3.744e-08
2.98262e-08
2.40045e-08
2.80059e-08
3.33333e-08
4.34441e-08
5.92646e-08
9.06342e-08
9.39708e-08
9.0215e-08
1.01496e-07
9.94112e-08
7.96021e-08
6.89765e-08
5.5344e-08
4.14933e-08
2.91561e-08
1.83884e-08
9.68849e-09
4.4663e-09
4.13626e-09
1.80239e-09
1.25306e-12
8.48081e-11
5.65452e-10
3.0317e-10
2.83265e-10
1.26364e-09
2.28812e-10
2.10714e-10
1.23712e-09
1.19923e-09
1.12794e-09
1.22472e-09
1.99353e-10
2.05665e-10
2.1987e-10
2.36778e-10
2.37845e-10
2.24363e-10
1.29634e-09
1.94636e-10
2.31706e-09
7.76532e-10
5.70726e-10
4.66823e-10
3.89542e-10
3.42085e-10
2.98478e-10
2.52526e-10
2.0878e-10
1.76002e-10
1.48068e-10
1.19311e-10
1.04847e-10
9.89976e-11
9.44719e-11
8.95604e-11
8.1334e-11
1.07825e-09
1.4489e-06
2.82535e-07
1.62955e-07
1.30706e-07
1.00513e-07
5.44497e-08
6.91876e-07
2.54653e-09
3.36361e-10
1.80267e-10
4.78069e-10
2.48028e-09
1.1708e-07
1.28329e-07
1.50569e-06
1.81661e-06
1.64716e-06
1.67958e-06
1.22917e-07
6.66245e-08
4.72874e-08
1.26737e-08
1.11158e-10
1.58729e-07
2.11205e-07
1.94301e-07
1.61031e-07
1.25231e-07
8.78891e-08
6.69808e-08
5.86837e-08
4.89148e-08
5.03467e-08
4.87492e-08
4.80586e-08
4.83915e-08
5.11019e-08
5.50313e-08
4.91587e-08
4.17532e-08
3.90524e-08
1.34482e-08
2.72089e-08
2.7817e-08
3.88445e-08
5.32259e-08
6.19514e-08
8.50038e-08
4.50109e-15
8.01617e-08
8.8459e-08
2.36149e-18
6.51484e-08
5.54315e-08
4.31024e-08
3.11356e-08
2.08703e-08
1.25634e-08
6.79185e-09
3.03515e-09
3.15156e-09
1.35646e-09
2.76514e-12
9.43265e-11
5.23847e-10
2.91011e-10
2.71207e-10
2.46478e-10
2.21816e-10
2.03346e-10
1.15129e-09
1.09537e-09
1.07307e-09
1.17191e-09
1.92861e-10
2.0126e-10
2.16449e-10
2.3178e-10
2.32008e-10
2.21066e-10
1.45639e-09
1.3293e-09
1.03066e-09
7.56774e-10
5.62721e-10
4.61673e-10
3.87106e-10
3.36664e-10
2.96497e-10
2.50731e-10
2.07285e-10
1.74073e-10
1.2167e-07
1.18454e-10
1.04556e-10
9.86443e-11
9.4218e-11
8.85224e-11
8.1161e-11
2.8014e-10
1.2892e-07
1.28758e-07
7.15658e-07
1.0145e-07
7.00382e-08
7.1325e-07
9.02862e-07
6.64203e-07
3.80614e-10
3.60875e-10
1.49147e-09
7.6283e-07
6.25318e-08
8.01454e-08
7.64276e-08
1.12971e-07
1.52754e-07
1.55192e-07
1.05869e-07
5.3699e-07
5.26658e-08
8.18983e-08
1.17521e-07
1.59055e-07
9.04255e-13
1.22178e-12
1.6053e-07
4.28981e-12
1.01688e-07
7.71157e-08
6.35382e-08
6.22545e-08
5.63718e-08
5.34611e-08
5.13835e-08
5.71942e-08
5.0709e-08
5.20738e-08
5.49966e-08
1.51576e-08
3.6453e-08
2.95878e-08
2.5179e-08
2.96417e-08
4.07942e-08
5.56435e-13
7.05624e-08
7.516e-08
7.4409e-08
6.70798e-08
6.44855e-08
1.0174e-16
5.00136e-08
4.17303e-08
3.13549e-08
2.18434e-08
6.16494e-15
8.63115e-09
4.52362e-09
1.97085e-09
2.31387e-09
4.25979e-12
2.41621e-10
3.97631e-10
3.19846e-10
2.77557e-10
2.57287e-10
2.36723e-10
2.14806e-10
1.97051e-10
1.07116e-09
1.02148e-09
1.0189e-09
1.11344e-09
1.26015e-09
1.96417e-10
2.12494e-10
2.26458e-10
1.66339e-09
2.1741e-10
2.13707e-10
1.24851e-09
9.6803e-10
7.40868e-10
5.5351e-10
4.55487e-10
2.19646e-08
3.34875e-10
2.97471e-10
2.48624e-10
2.05626e-10
1.72231e-10
1.41262e-10
1.17513e-10
1.04207e-10
9.82258e-11
9.39211e-11
8.7665e-11
8.09627e-11
4.16161e-07
1.11908e-06
8.27574e-07
1.03667e-07
6.22635e-08
2.89432e-08
8.56059e-07
5.34096e-09
7.80076e-10
5.58113e-10
5.6157e-07
8.36523e-07
3.50388e-08
1.07138e-06
6.67648e-08
8.91177e-08
1.36252e-07
1.57895e-07
1.34484e-07
8.30311e-08
4.63695e-08
1.38501e-08
9.82928e-08
4.32005e-11
1.79228e-07
2.08287e-07
1.87958e-07
1.60062e-07
1.36664e-07
1.06952e-07
3.24825e-10
7.82534e-08
7.26828e-08
6.66335e-08
6.17569e-08
2.68374e-08
6.20226e-08
6.01211e-08
5.36388e-08
4.93861e-08
3.95147e-08
3.48408e-08
3.04119e-08
2.69877e-08
3.0475e-08
3.77418e-08
4.89328e-08
4.95419e-08
6.30702e-08
5.93922e-08
5.25771e-08
4.60033e-08
2.28739e-15
3.46403e-08
2.84585e-08
2.126e-08
1.47577e-08
9.40336e-09
5.61455e-09
5.74139e-09
3.23759e-09
3.76184e-11
1.47087e-10
1.41444e-10
2.57155e-11
3.0362e-10
2.63452e-10
2.42512e-10
2.27758e-10
2.63021e-09
2.80413e-09
9.96953e-10
9.48139e-10
9.56277e-10
3.58073e-09
1.16475e-09
1.32704e-09
2.07884e-10
2.21113e-10
1.86956e-09
2.13465e-10
2.06912e-10
1.16118e-09
9.13029e-10
5.3861e-09
5.43275e-10
4.48292e-10
3.81656e-10
3.35059e-10
2.98327e-10
2.47798e-10
2.03792e-10
1.7046e-10
1.39533e-10
1.16513e-10
1.03809e-10
9.77445e-11
9.35548e-11
8.69362e-11
8.07472e-11
2.17137e-11
4.35311e-08
8.53214e-07
7.65549e-07
2.04424e-08
5.49017e-09
3.20745e-09
9.66084e-10
7.46624e-10
1.96704e-09
8.03001e-07
1.17038e-06
1.13487e-06
1.16416e-07
1.33754e-06
1.47175e-06
1.69296e-06
1.41211e-07
1.33873e-06
6.32e-08
4.26819e-08
5.44312e-08
8.27068e-08
1.16892e-07
1.52146e-12
3.75392e-13
1.86606e-07
1.70557e-07
1.73426e-12
1.17252e-07
1.02396e-07
9.72819e-08
9.91577e-08
9.33196e-08
8.15086e-08
7.30175e-08
1.0684e-08
6.4682e-08
6.25749e-08
6.54675e-09
4.18692e-08
3.34517e-08
2.98417e-08
2.96103e-08
3.11252e-08
3.45065e-08
3.91207e-08
4.15361e-08
5.08536e-08
4.56096e-08
4.24272e-08
3.30943e-08
2.70914e-08
2.1965e-08
7.59575e-15
1.32213e-08
9.03837e-09
5.92334e-09
3.46783e-09
3.99049e-09
3.14556e-11
3.62424e-11
9.08422e-12
4.32046e-10
5.43661e-10
2.86027e-10
2.48915e-10
2.27864e-10
2.86125e-09
1.95321e-10
1.11849e-09
9.1538e-10
8.71864e-10
8.87618e-10
9.89545e-10
1.08232e-09
1.24032e-09
2.02522e-10
2.2313e-09
2.1342e-10
2.0913e-09
2.13736e-09
1.07916e-09
8.61545e-10
6.01613e-09
5.30675e-10
4.40334e-10
3.77393e-10
3.35314e-10
2.97864e-10
2.4749e-10
2.01835e-10
1.67983e-10
1.37568e-10
1.15448e-10
1.0337e-10
9.72215e-11
9.29829e-11
8.62995e-11
8.0507e-11
1.85512e-12
7.43109e-09
2.9968e-08
7.98171e-07
3.22725e-09
8.0002e-10
6.84167e-07
6.96783e-10
5.27113e-07
1.02537e-06
2.43309e-08
1.51532e-06
1.26875e-07
1.09314e-06
1.42898e-07
1.47557e-07
1.47157e-07
1.14035e-07
8.33873e-07
3.70923e-07
5.5656e-08
5.94791e-08
8.01997e-08
1.09457e-07
1.57935e-07
6.16126e-13
1.80275e-07
1.66481e-07
1.4529e-07
1.26577e-07
1.19938e-07
1.19079e-07
1.56201e-07
1.08226e-10
3.72726e-10
1.02755e-07
9.07866e-08
8.13934e-08
7.30795e-08
6.11741e-08
4.65678e-08
3.79527e-08
3.39717e-08
3.26267e-08
3.34264e-08
3.31202e-08
3.33582e-08
3.39219e-08
3.93932e-08
3.34315e-08
2.99787e-08
2.64669e-08
1.77304e-08
1.4538e-08
1.10297e-08
8.31707e-09
2.02212e-14
3.47993e-12
4.44442e-09
2.69056e-09
1.5395e-09
7.17983e-12
8.64896e-11
2.8851e-11
1.44092e-09
2.37307e-09
2.34696e-10
2.13258e-10
3.46345e-09
1.18455e-09
9.83842e-10
8.34519e-10
7.99855e-10
8.20805e-10
9.06385e-10
1.01292e-09
3.6665e-09
2.93715e-09
2.08173e-10
2.05396e-10
2.00929e-10
1.33934e-09
1.00891e-09
8.13178e-10
6.58318e-10
5.33165e-10
4.31855e-10
3.72756e-10
3.35634e-10
2.97413e-10
2.47185e-10
1.99192e-10
1.65589e-10
1.35714e-10
1.14458e-10
1.02878e-10
9.66808e-11
9.23414e-11
8.57078e-11
8.02299e-11
1.23384e-13
5.01106e-07
6.91098e-07
5.464e-07
6.31137e-10
4.20528e-10
8.3986e-10
5.56308e-07
7.55749e-07
1.06916e-06
1.56095e-06
1.85398e-06
4.57622e-07
3.36651e-07
1.13954e-07
1.34252e-07
1.59621e-06
9.19862e-08
5.58893e-08
4.50642e-08
4.86726e-08
6.66358e-08
8.6861e-08
1.05749e-07
1.37828e-07
1.82818e-07
1.75841e-07
1.63104e-07
1.55459e-07
1.39611e-07
1.34351e-07
1.42784e-07
1.55951e-07
1.49552e-07
1.3995e-07
9.44703e-11
1.28087e-07
1.59346e-10
9.32191e-08
3.81044e-10
5.63586e-08
4.52484e-08
3.99176e-08
3.7188e-08
3.48379e-08
3.13988e-08
2.75277e-08
2.66155e-08
9.32027e-14
2.33585e-08
2.00542e-08
1.72965e-08
1.47229e-08
8.91246e-09
3.30775e-14
4.95605e-09
3.41212e-12
4.64058e-09
2.93778e-09
1.74986e-09
1.49257e-11
3.5058e-10
9.94926e-11
5.56902e-10
2.91327e-10
2.45956e-10
2.20705e-10
1.99226e-10
1.26313e-09
5.44356e-09
8.62742e-10
7.59246e-10
7.34884e-10
7.62558e-10
8.29893e-10
9.35773e-10
1.06866e-09
1.27642e-09
2.01003e-10
2.78799e-09
1.3491e-09
1.20214e-09
9.40568e-10
7.72436e-10
6.19502e-10
5.17685e-10
4.22465e-10
3.68023e-10
3.339e-10
6.04723e-08
2.46704e-10
1.96502e-10
1.62833e-10
1.33956e-10
1.13314e-10
1.02216e-10
9.60914e-11
9.16599e-11
8.47398e-11
7.98566e-11
7.26693e-08
4.21264e-07
6.77531e-07
6.96356e-07
1.65946e-09
6.39934e-07
7.08127e-09
9.1492e-07
1.14467e-06
1.28303e-06
1.61363e-06
1.43734e-07
8.99939e-08
1.10953e-08
8.99619e-08
1.21681e-07
1.19424e-07
7.94418e-08
4.57828e-08
3.14175e-08
5.47317e-08
6.97907e-08
8.93953e-11
1.06203e-07
1.29254e-07
8.44072e-13
3.40558e-13
1.60091e-07
1.68906e-07
5.71056e-13
1.61064e-07
1.5695e-07
1.54888e-07
1.48525e-07
1.41037e-07
1.61807e-07
1.39209e-07
1.48233e-07
9.38616e-11
9.00773e-08
6.71934e-08
5.31901e-08
4.56653e-08
4.1989e-08
3.71841e-08
2.874e-08
2.30109e-08
1.94469e-08
1.8437e-08
1.569e-08
1.79884e-13
1.71865e-13
1.41212e-13
8.46905e-09
6.78726e-09
5.58477e-09
4.26421e-09
3.00394e-09
1.87964e-09
5.92995e-12
1.67754e-12
1.27959e-09
2.80507e-11
3.15772e-10
2.64441e-10
2.24581e-10
4.80442e-09
5.95481e-09
1.04876e-09
8.97495e-10
7.69837e-10
6.86844e-10
6.72562e-10
7.04592e-10
7.68292e-10
8.59693e-10
9.91238e-10
1.14931e-09
1.36295e-09
1.29564e-09
1.22409e-09
1.09177e-09
8.7442e-10
7.31755e-10
5.89923e-10
5.01227e-10
4.1253e-10
3.62835e-10
3.31884e-10
2.9557e-10
2.45011e-10
1.06819e-07
1.59415e-10
1.32332e-10
1.11859e-10
1.01354e-10
9.54518e-11
9.09391e-11
8.4217e-11
7.94101e-11
7.58136e-08
2.34323e-11
2.61135e-10
3.56704e-09
1.78476e-08
9.54949e-07
5.62047e-08
1.27047e-06
1.16128e-07
1.38338e-07
1.46514e-07
1.4937e-07
9.30941e-08
6.90213e-08
9.04748e-08
1.17954e-07
1.09993e-07
6.98507e-08
4.19823e-08
4.47064e-08
6.0385e-08
8.18974e-08
2.62435e-11
1.05464e-07
1.22028e-07
1.56412e-12
1.56503e-07
1.49052e-07
1.78215e-13
1.75859e-07
2.60549e-13
1.85911e-07
1.98745e-07
1.91086e-07
1.65197e-07
1.58015e-07
1.66051e-07
1.5892e-07
1.19772e-07
9.88284e-08
1.20668e-12
2.40836e-12
5.15789e-08
4.58951e-08
5.2688e-13
2.3515e-08
1.71229e-08
8.64483e-13
8.62076e-09
1.00838e-08
4.93198e-13
6.66925e-09
5.73602e-09
5.21752e-09
1.00952e-11
2.40624e-11
2.75091e-09
9.73001e-11
3.01061e-12
4.0519e-12
4.77872e-11
2.8438e-09
4.26931e-09
2.86311e-10
8.09094e-09
2.04887e-10
7.86669e-09
9.80496e-10
8.85313e-10
7.79769e-10
6.7929e-10
6.22811e-10
6.16976e-10
6.4862e-10
7.09434e-10
7.9519e-10
9.079e-10
1.05473e-09
3.79449e-09
1.16458e-09
1.10971e-09
4.57571e-09
8.14733e-10
6.91721e-10
5.61683e-10
4.86996e-10
4.02661e-10
3.56617e-10
3.29999e-10
2.90226e-10
8.78179e-08
1.92807e-10
1.56001e-10
1.30647e-10
1.10348e-10
1.00452e-10
9.47007e-11
8.99114e-11
8.3697e-11
7.89904e-11
3.29269e-11
3.44839e-07
3.56854e-09
1.19308e-06
1.32788e-06
1.41533e-07
1.50343e-07
1.54008e-06
1.51907e-06
7.05819e-07
1.41979e-07
6.97124e-07
9.44279e-08
2.81993e-08
5.08608e-07
1.1411e-07
9.49189e-08
4.32899e-07
5.35854e-08
1.26953e-08
6.01713e-08
7.67555e-11
1.13122e-07
1.02779e-07
1.1025e-07
1.18131e-07
1.24406e-07
1.26278e-07
1.39226e-07
1.47078e-07
1.51309e-07
1.75252e-07
1.91634e-07
1.59619e-13
1.757e-07
1.67691e-07
1.62805e-07
1.56539e-07
3.11341e-13
9.54087e-08
8.22236e-08
6.39977e-08
5.22692e-08
4.43011e-08
3.46114e-13
1.75532e-08
1.0607e-08
6.36493e-09
4.34749e-09
3.13778e-09
1.87038e-09
1.30923e-09
2.05558e-09
3.49834e-11
4.94538e-11
2.24021e-09
1.74347e-09
7.12199e-11
4.59253e-12
4.59694e-11
2.08972e-11
2.33455e-11
7.26058e-09
2.57765e-10
2.16363e-10
1.07228e-09
9.66189e-10
8.21628e-10
7.59644e-10
6.74837e-10
6.0813e-10
5.71363e-10
5.71129e-10
6.01262e-10
6.54234e-10
7.35154e-10
8.32182e-10
9.6457e-10
1.11935e-09
1.06553e-09
1.02761e-09
9.32681e-10
7.64119e-10
8.89211e-09
5.51122e-10
1.87846e-08
2.82979e-08
3.502e-10
3.26273e-10
2.84931e-10
2.39545e-10
1.90475e-10
1.52574e-10
1.28508e-10
1.0881e-10
9.95077e-11
9.36786e-11
8.89095e-11
8.31668e-11
7.86071e-11
8.67893e-07
6.47741e-08
7.15596e-08
2.01275e-06
6.01865e-09
9.56932e-08
1.42592e-06
1.11789e-07
6.12064e-07
1.04534e-07
5.36614e-07
5.77035e-07
9.25358e-08
6.04636e-08
2.57618e-07
1.0373e-07
7.7269e-08
1.48824e-07
3.89423e-08
4.55468e-09
6.5282e-08
7.82356e-08
2.21918e-11
8.45845e-08
9.79155e-08
1.01053e-07
1.07948e-12
1.0574e-07
1.05515e-07
1.20048e-07
1.32835e-07
1.31358e-07
3.8141e-13
1.52289e-07
1.95097e-13
1.59841e-07
1.56275e-07
6.6553e-14
1.86637e-13
8.87568e-08
7.63301e-08
6.37709e-08
5.01814e-08
3.7416e-08
2.24823e-08
1.10632e-08
5.6742e-09
2.96489e-09
1.42162e-09
2.25686e-11
1.29347e-10
2.39045e-10
1.18408e-10
6.08467e-11
1.0747e-11
5.39746e-11
5.63962e-12
1.31094e-10
5.00333e-11
3.71331e-09
5.47431e-10
3.09246e-10
2.70928e-10
2.31061e-10
1.14276e-09
9.0268e-10
7.94896e-10
6.97887e-10
1.44541e-08
5.98444e-10
5.66223e-10
5.38647e-10
5.43387e-10
5.58475e-10
6.08057e-10
6.77603e-10
7.69063e-10
8.72685e-10
5.91843e-09
9.80194e-10
9.47361e-10
8.52788e-10
7.15323e-10
6.1378e-10
5.22097e-10
4.58022e-10
3.91486e-10
3.50764e-10
3.20988e-10
2.78742e-10
1.01933e-07
1.87395e-10
1.50053e-10
1.26401e-10
1.08148e-10
9.86577e-11
9.26248e-11
8.79425e-11
8.26301e-11
7.81974e-11
1.34496e-09
9.54072e-07
2.96259e-07
5.13988e-07
1.85579e-09
4.17927e-07
6.46617e-08
1.73585e-07
2.37677e-07
6.48579e-08
6.71929e-08
1.74852e-07
7.402e-08
7.62202e-08
8.75674e-08
5.25027e-07
5.93378e-08
4.16872e-08
3.56646e-08
4.55317e-08
1.47956e-10
4.97867e-11
6.41894e-08
1.29346e-11
3.45881e-12
1.76427e-12
2.56638e-12
7.83085e-08
7.73306e-08
8.74833e-08
1.04165e-12
6.45517e-13
9.74246e-08
9.39214e-08
1.01551e-07
1.35993e-13
1.23864e-13
1.30083e-07
1.06409e-07
2.77628e-13
6.79756e-08
5.60218e-08
1.62069e-13
2.57964e-08
1.4666e-12
5.63035e-09
4.01649e-12
8.03e-10
1.99076e-10
7.72918e-11
8.71976e-12
4.49077e-11
6.79343e-11
9.10502e-11
9.69109e-11
1.08018e-10
7.06503e-11
2.66198e-09
4.06632e-09
5.02899e-10
1.08438e-08
1.46099e-08
2.32927e-10
1.20866e-09
9.15863e-10
7.39818e-10
6.47057e-10
5.88617e-10
5.79224e-10
5.3652e-10
5.02528e-10
4.88422e-10
4.9431e-10
5.24686e-10
1.51291e-08
6.17751e-10
6.99231e-10
9.20501e-09
8.99391e-10
7.53055e-09
8.51755e-10
7.79756e-10
6.60521e-10
5.7256e-10
4.92168e-10
2.5364e-08
3.83841e-10
3.51985e-10
3.18957e-10
9.05522e-08
2.25085e-10
1.83256e-10
1.47545e-10
1.24071e-10
1.0736e-10
9.78577e-11
9.13374e-11
8.66313e-11
8.19872e-11
7.77029e-11
4.90203e-10
5.35087e-09
1.64803e-07
1.35643e-07
7.20839e-08
5.68204e-08
3.27771e-08
3.38917e-08
3.71096e-08
3.99524e-08
3.43801e-08
4.48782e-08
3.73306e-08
6.5515e-08
1.26739e-07
5.9781e-08
4.46898e-08
4.09814e-08
9.85957e-09
4.34929e-08
4.39257e-08
4.73181e-08
4.55582e-08
5.3194e-08
4.05594e-12
4.89571e-12
5.96495e-12
5.66861e-08
8.4562e-12
5.48078e-08
5.53861e-08
5.61558e-08
5.55754e-08
5.74805e-08
6.30058e-08
7.01632e-08
6.96065e-08
6.93811e-08
2.7043e-13
6.52619e-08
1.12698e-13
8.21043e-14
2.21512e-13
1.43328e-08
5.44907e-09
1.91104e-09
2.1797e-10
1.51802e-13
1.44586e-10
3.39543e-10
3.22942e-11
5.91811e-10
6.56792e-10
6.9072e-10
2.42564e-11
2.06404e-11
3.42755e-09
6.12778e-09
3.07664e-10
1.37414e-08
1.82675e-08
2.27678e-08
1.07982e-09
9.22597e-10
7.34301e-10
6.0166e-10
5.44529e-10
5.10421e-10
4.93395e-10
4.74935e-10
4.53808e-10
4.44847e-10
4.53157e-10
4.78245e-10
5.17032e-10
5.59653e-10
6.24232e-10
6.88633e-10
7.74837e-10
7.72165e-10
7.63826e-10
7.03059e-10
6.08975e-10
5.43794e-10
4.64991e-10
4.12813e-10
3.73747e-10
3.48309e-10
3.16929e-10
2.64204e-10
2.13521e-10
1.77396e-10
1.44385e-10
1.21436e-10
1.06096e-10
9.67285e-11
8.98292e-11
8.56067e-11
8.10256e-11
7.70887e-11
8.99737e-10
1.41029e-09
1.82795e-08
7.29543e-08
5.21604e-08
1.98602e-08
9.51584e-09
1.20252e-08
1.73647e-08
2.45618e-08
2.43163e-09
4.6551e-08
5.08466e-08
2.75473e-08
6.42976e-08
5.27142e-08
4.07392e-08
3.82623e-08
1.62189e-09
4.31596e-08
1.22035e-10
3.62454e-08
3.77055e-08
3.90402e-08
1.46573e-11
4.03996e-08
3.6272e-08
3.48913e-08
3.23583e-11
3.09703e-08
1.27594e-11
1.14952e-11
3.14055e-08
3.51793e-08
5.45425e-12
3.60008e-08
3.87532e-08
4.30711e-08
4.58515e-08
2.7336e-13
3.56732e-08
2.5193e-08
1.38453e-08
3.34107e-12
1.7633e-09
1.41764e-10
2.8625e-11
2.05779e-10
2.45845e-10
2.74676e-10
2.93615e-10
1.52889e-09
3.21079e-10
3.61846e-09
3.16498e-10
6.88614e-09
8.26615e-09
1.24043e-08
2.53787e-10
2.31077e-10
2.09859e-10
9.52959e-10
8.17688e-10
7.25636e-10
4.71823e-08
5.17742e-10
4.68335e-10
4.43514e-10
3.9051e-08
3.46164e-08
4.13717e-10
4.09556e-10
4.14611e-10
4.39287e-10
4.73234e-10
5.19561e-10
5.61259e-10
6.11636e-10
6.69971e-10
6.79913e-10
6.75114e-10
6.35578e-10
1.61586e-08
5.00618e-10
4.38428e-10
4.01557e-10
3.64271e-10
3.41241e-10
3.11781e-10
1.12872e-07
2.06473e-10
1.69672e-10
1.41357e-10
1.17804e-10
1.04549e-10
9.5152e-11
8.86217e-11
8.4703e-11
8.0107e-11
7.63761e-11
8.81128e-10
1.18762e-09
5.90597e-09
1.24319e-08
9.91489e-09
3.05337e-09
1.31964e-09
5.01767e-10
2.51012e-09
9.27961e-09
2.68472e-08
4.43295e-08
4.94466e-08
5.60807e-08
1.72941e-08
4.8688e-08
4.58343e-08
5.63852e-09
4.14737e-08
3.34517e-08
3.03888e-08
6.37142e-11
7.28178e-11
3.84947e-11
3.08239e-11
2.44835e-08
2.05802e-08
1.9123e-08
1.51981e-08
1.46844e-08
7.17797e-11
1.22049e-08
1.33599e-08
2.39366e-11
1.63081e-08
1.90684e-08
6.34059e-12
2.47851e-08
2.54311e-08
2.41352e-08
1.86184e-08
2.30901e-12
5.66262e-09
1.9684e-09
4.16069e-11
6.3928e-10
1.84269e-09
2.1498e-10
2.1613e-10
2.24665e-10
2.43511e-10
5.68868e-09
7.12297e-09
2.67349e-10
2.62488e-10
2.60924e-10
2.5531e-10
2.3146e-10
2.10804e-10
9.54473e-10
8.29988e-10
5.34521e-08
6.4473e-10
6.18541e-08
5.14093e-10
4.52935e-10
4.24879e-10
4.10297e-10
4.03534e-10
3.98433e-10
4.25716e-08
3.89308e-10
3.94845e-10
4.09404e-10
4.34652e-10
4.79029e-10
5.18686e-10
5.6386e-10
5.9283e-10
1.60475e-08
6.06584e-10
5.81438e-10
5.30504e-10
4.70011e-10
4.16666e-10
3.88999e-10
3.6645e-10
3.33884e-10
3.00873e-10
2.45398e-10
1.98776e-10
1.62048e-10
1.36643e-10
1.14958e-10
1.03053e-10
9.35681e-11
8.74648e-11
8.37773e-11
7.92434e-11
7.55003e-11
8.0237e-10
1.1074e-09
3.65884e-09
7.24834e-09
7.57264e-09
7.42477e-09
6.65237e-09
3.8688e-09
1.18135e-09
2.32689e-10
8.01892e-09
4.66992e-11
4.82478e-08
2.19261e-09
5.88172e-08
5.77496e-08
5.49723e-08
4.14298e-08
3.35208e-08
2.63237e-08
2.12433e-08
2.60694e-10
1.63113e-08
1.68302e-08
1.39417e-08
1.25655e-08
1.06172e-08
1.23551e-10
7.30519e-09
1.86221e-10
5.36824e-09
5.11948e-09
1.32486e-10
5.381e-09
6.10704e-11
8.85602e-09
1.11335e-08
1.29895e-08
1.43914e-08
1.26019e-08
8.26765e-09
4.33417e-09
1.6339e-09
1.00092e-10
3.16926e-11
1.91807e-10
1.12705e-09
9.6466e-10
9.97139e-10
1.06931e-09
9.89146e-09
1.21889e-08
1.40907e-08
2.18831e-10
1.84595e-08
2.13946e-10
1.14937e-09
3.45061e-08
8.39514e-10
7.37179e-10
6.48055e-10
5.91219e-10
5.36473e-10
4.97451e-10
4.51078e-10
4.10422e-10
3.96115e-10
3.87147e-10
3.80432e-10
3.73966e-10
3.68537e-10
3.6617e-10
3.72209e-10
3.89549e-10
4.09134e-10
4.42061e-10
2.83832e-08
5.0726e-10
5.41169e-10
5.619e-10
5.63101e-10
5.446e-10
2.58328e-08
4.37815e-10
4.04519e-10
3.73895e-10
3.62578e-10
3.30953e-10
2.85575e-10
2.31863e-10
1.90406e-10
1.57612e-10
1.32129e-10
1.13047e-10
1.01569e-10
9.20069e-11
8.6737e-11
8.30206e-11
7.83638e-11
7.46305e-11
7.82108e-10
9.97947e-10
2.04689e-09
4.6659e-09
6.36842e-09
6.59706e-09
7.73254e-09
8.67306e-09
5.18966e-09
1.28605e-09
2.08558e-11
9.87434e-09
3.37785e-08
5.4968e-08
5.80209e-08
6.62274e-08
5.87349e-08
2.5793e-10
3.03962e-08
2.00501e-08
1.37408e-08
9.80787e-09
8.30925e-09
7.78312e-09
6.98092e-09
1.35626e-10
4.64954e-09
3.25601e-09
2.21421e-09
1.78527e-09
1.33309e-09
1.20559e-09
1.49294e-09
2.04496e-09
3.07396e-09
3.49705e-09
5.12218e-09
4.39407e-13
6.55953e-09
5.51878e-09
3.03002e-09
1.09447e-09
2.20343e-10
7.96273e-12
1.68165e-10
9.19556e-10
1.03857e-08
6.76989e-10
6.93033e-10
7.56107e-10
8.81184e-10
9.38474e-10
9.5378e-10
9.6999e-10
9.23247e-10
8.60197e-10
8.10307e-10
7.33332e-10
6.5794e-10
5.9292e-10
5.31351e-10
4.8932e-10
4.64227e-10
4.3978e-10
1.15009e-07
3.86387e-10
3.63991e-10
3.58473e-10
3.58712e-10
3.60253e-10
3.59049e-10
3.59371e-10
3.625e-10
3.67942e-10
3.89027e-10
4.15622e-10
4.38064e-10
4.65155e-10
4.91576e-10
5.04686e-10
5.10963e-10
5.0219e-10
4.5664e-10
4.18213e-10
3.90295e-10
3.75436e-10
3.50262e-10
1.0199e-07
2.77191e-10
2.20542e-10
1.80258e-10
1.51865e-10
1.26812e-10
1.1027e-10
9.89413e-11
9.03075e-11
8.59479e-11
8.21248e-11
7.74237e-11
7.37457e-11
8.02405e-10
9.58846e-10
1.2508e-09
2.28119e-09
3.01436e-09
2.88012e-09
4.06988e-09
7.58502e-09
9.26397e-09
4.588e-09
6.86824e-10
2.14599e-10
1.25459e-08
4.00905e-11
4.89289e-08
5.20452e-11
6.24418e-11
3.14983e-08
2.31503e-10
1.22032e-08
6.13464e-10
5.37981e-09
3.91606e-09
2.86979e-09
6.75757e-10
4.73281e-10
1.162e-09
5.48387e-12
4.63493e-10
2.96139e-10
1.97524e-10
1.63342e-10
4.14273e-12
3.3327e-10
7.07798e-10
1.4044e-09
5.20218e-14
2.28774e-09
2.34814e-09
2.46197e-11
6.61073e-10
3.93818e-10
1.73142e-11
6.60874e-10
7.4624e-10
6.25725e-10
5.49255e-10
5.13436e-10
5.2795e-10
5.76704e-10
3.83442e-08
6.49512e-10
6.67489e-10
4.7899e-08
5.41996e-08
6.46601e-10
6.2133e-10
5.73229e-10
9.6285e-08
4.91099e-10
4.55237e-10
4.29966e-10
4.19595e-10
4.03546e-10
3.77211e-10
3.53128e-10
3.36633e-10
3.35523e-10
3.36883e-10
3.37634e-10
8.23283e-08
3.37596e-10
3.46866e-10
3.60579e-10
3.71248e-10
3.95216e-10
4.14466e-10
4.30171e-10
4.49229e-10
4.61438e-10
3.41285e-08
3.38346e-08
4.28001e-10
4.03116e-10
3.81051e-10
3.68126e-10
3.45382e-10
3.06996e-10
2.64103e-10
2.10783e-10
1.70898e-10
1.45451e-10
1.2186e-10
1.07719e-10
9.65059e-11
8.93203e-11
8.49192e-11
8.11958e-11
7.65514e-11
7.32967e-11
8.43634e-10
9.89189e-10
1.01384e-09
1.20588e-09
1.33042e-09
1.24701e-09
1.9143e-09
4.57018e-09
8.63385e-09
7.96325e-09
2.6866e-09
1.55625e-10
1.06254e-09
1.24903e-08
2.42298e-08
3.03426e-08
2.34482e-08
1.53254e-08
8.97991e-09
5.87526e-09
3.37428e-09
1.7898e-09
1.33254e-09
9.34696e-10
6.46727e-10
6.4385e-10
2.05164e-10
8.33754e-12
4.35375e-11
3.67631e-11
7.40219e-11
1.43501e-10
1.62335e-10
1.5824e-10
1.32663e-10
1.43353e-10
2.53877e-10
4.79439e-10
4.27268e-10
2.40874e-10
1.79305e-11
3.21977e-10
6.2462e-10
6.60258e-10
5.28943e-10
4.16624e-08
4.25733e-10
4.1509e-10
4.30588e-10
4.5829e-10
6.49334e-08
5.06763e-10
5.21455e-10
5.4218e-10
5.35672e-10
5.16103e-10
4.9391e-10
4.73503e-10
4.56105e-10
1.49531e-07
4.04936e-10
3.81893e-10
3.71641e-10
3.5802e-10
3.30774e-10
3.07214e-10
2.96472e-10
2.97254e-10
3.04117e-10
3.13469e-10
3.20613e-10
3.23445e-10
3.28264e-10
3.41171e-10
3.62267e-10
3.77388e-10
3.9177e-10
4.1022e-10
4.24209e-10
4.3081e-10
4.3639e-10
4.4936e-08
4.12026e-10
3.86174e-10
3.78723e-10
3.53664e-10
3.37036e-10
2.94504e-10
2.46949e-10
2.00258e-10
1.63743e-10
1.39023e-10
1.18616e-10
1.04904e-10
9.41034e-11
8.82695e-11
8.38285e-11
8.02614e-11
7.56678e-11
7.29313e-11
8.98797e-10
9.98678e-10
9.77504e-10
8.89682e-10
7.38482e-10
5.91765e-10
9.86726e-10
2.80735e-09
6.45524e-09
8.65114e-09
5.15382e-09
1.26383e-09
1.30182e-10
1.41896e-09
5.81012e-09
9.27347e-09
1.93346e-09
2.77582e-09
3.58789e-09
4.07559e-09
7.23508e-10
3.24351e-10
1.73008e-10
1.09184e-10
7.78218e-11
2.21165e-12
6.18854e-11
8.48944e-11
5.58593e-11
8.51613e-11
6.72246e-11
1.09809e-10
5.40694e-11
1.91623e-10
2.55404e-10
2.11771e-10
1.28976e-10
5.19991e-11
1.90181e-10
7.95355e-10
3.03174e-10
4.41654e-10
5.68316e-10
3.86361e-08
4.01742e-10
3.68817e-10
8.76021e-08
3.53029e-10
9.57626e-08
3.98863e-10
1.04128e-07
4.20062e-10
4.32069e-10
4.47796e-10
1.25816e-07
4.32691e-10
4.22973e-10
4.12626e-10
3.96874e-10
3.75339e-10
3.49906e-10
3.27428e-10
3.13765e-10
2.12199e-07
2.83064e-10
2.66061e-10
2.58355e-10
2.65425e-10
2.74963e-10
2.82954e-10
2.88673e-10
3.00031e-10
3.1028e-10
3.26736e-10
3.41528e-10
3.67788e-10
3.80774e-10
3.87172e-10
4.02755e-10
4.1157e-10
4.18099e-10
4.17985e-10
6.82837e-08
3.85393e-10
3.66756e-10
3.49267e-10
3.1862e-10
2.81752e-10
2.32991e-10
1.87001e-10
1.56558e-10
1.3175e-10
1.14711e-10
1.01668e-10
9.24482e-11
8.69376e-11
8.27994e-11
7.90024e-11
7.5221e-11
7.24841e-11
9.62103e-10
9.85314e-10
8.10349e-10
6.11266e-10
4.30141e-10
3.06872e-10
6.88583e-10
2.23308e-09
5.26342e-09
7.98333e-09
6.73823e-09
2.78159e-09
6.21488e-10
2.97938e-11
6.52295e-10
5.7972e-09
2.02669e-09
1.15651e-09
6.24809e-09
1.80743e-10
4.71278e-11
1.90737e-11
9.5551e-12
3.23665e-09
2.20217e-12
1.02267e-11
2.90485e-11
1.00327e-10
1.51223e-10
5.55384e-11
3.1968e-11
3.81785e-11
5.89037e-11
1.04434e-10
2.48852e-10
7.82831e-12
4.40447e-10
4.05505e-10
4.224e-10
6.02817e-09
3.54922e-10
3.40943e-08
3.94347e-10
8.41189e-08
1.09522e-07
2.84513e-10
2.77605e-10
2.82758e-10
3.0909e-10
1.3829e-07
3.50684e-10
3.53906e-10
3.65298e-10
3.81367e-10
3.81408e-10
3.71029e-10
3.61831e-10
3.51024e-10
3.3233e-10
3.08875e-10
2.87239e-10
2.70008e-10
2.57018e-10
2.4986e-10
2.34087e-10
2.23993e-10