/*--------------------------------*- C++ -*----------------------------------*\
  =========                 |
  \\      /  F ield         | OpenFOAM: The Open Source CFD Toolbox
   \\    /   O peration     | Website:  https://openfoam.org
    \\  /    A nd           | Version:  6
     \\/     M anipulation  |
\*---------------------------------------------------------------------------*/
FoamFile
{
    version     2.0;
    format      ascii;
    class       volScalarField;
    location    "0.1";
    object      CH4;
}
// * * * * * * * * * * * * * * * * * * * * * * * * * * * * * * * * * * * * * //

dimensions      [0 0 0 0 0 0 0];

internalField   nonuniform List<scalar> 
8000
(
2.19278e-06
1.55521e-05
5.91733e-05
0.000185161
0.000280353
0.000207265
0.000105817
4.74011e-05
2.07538e-05
9.00251e-06
4.2575e-06
3.462e-06
5.80052e-06
1.88273e-05
1.82632e-05
1.91536e-05
3.19732e-05
0.000718815
4.94485e-05
3.93396e-05
3.93215e-05
3.86606e-05
5.61834e-05
0.000146688
0.00026116
0.000355253
0.000390903
0.000375617
0.000364649
0.00100229
0.000740288
0.000196504
0.000121428
7.60763e-05
5.53612e-05
4.62018e-05
4.33688e-05
4.71042e-05
6.73706e-05
9.55843e-05
6.9925e-05
5.57771e-05
5.75508e-05
7.41431e-05
0.000106369
0.000157935
0.000222466
0.000303597
0.000400942
0.00132314
0.000796149
0.000619964
0.000583665
0.000585215
0.000587613
0.000590627
0.000592332
0.000591644
0.000589045
0.000584403
0.000497326
0.000479731
0.000342742
0.000349713
0.000231772
9.29613e-05
0.000169703
0.00012317
0.000120992
0.000119087
0.000190259
0.000112209
0.000112944
0.000174513
0.000175072
0.000114656
0.000114527
0.000116335
0.000119177
0.000120472
0.000118369
0.000118005
0.000114335
0.000173082
0.000159841
0.00014077
0.000120285
0.0001061
0.000150265
7.09917e-05
5.40012e-05
4.22982e-05
3.52343e-05
2.9757e-05
1.98758e-05
1.55314e-05
1.30672e-05
1.13537e-05
1.04261e-05
7.12616e-06
2.14124e-06
1.65369e-05
6.27524e-05
0.000196917
0.000329534
0.000207137
9.97844e-05
4.50711e-05
1.94854e-05
8.27153e-06
3.97274e-06
3.7809e-06
8.12968e-06
3.44549e-05
3.15224e-05
2.34624e-05
2.9583e-05
3.90792e-05
4.14849e-05
4.28962e-05
4.12907e-05
4.08262e-05
6.15543e-05
0.00015596
0.000270197
0.000375669
0.00039531
0.000377023
0.000348308
0.00036358
0.000236894
0.000173443
0.000115677
7.93024e-05
6.39391e-05
5.63098e-05
5.29098e-05
5.59181e-05
7.86496e-05
0.000442836
8.9228e-05
6.37914e-05
6.38933e-05
8.06674e-05
0.000113291
0.00016563
0.000228671
0.000306266
0.00039702
0.000456695
0.000566847
0.000578243
0.000584733
0.000586172
0.0005881
0.000590456
0.000591603
0.000590668
0.000587859
0.000583389
0.000496051
0.000477077
0.000337507
0.000361645
0.000158876
9.23846e-05
0.000169078
0.000122877
0.000120745
0.000118747
0.000117357
0.000111759
0.000112805
0.000174032
0.000174672
0.000114543
0.000114305
0.000116164
0.000118999
0.000120446
0.000118205
0.000117935
0.000114118
0.000172829
0.000159874
0.00014052
0.000120039
0.000105921
9.49471e-05
7.07835e-05
5.39236e-05
4.22216e-05
3.51785e-05
2.97483e-05
1.98356e-05
1.55078e-05
1.30498e-05
1.13395e-05
1.04343e-05
7.11582e-06
2.43621e-06
2.12566e-05
5.6118e-05
0.000235038
0.00021398
0.00014325
7.31911e-05
4.33164e-05
3.75754e-05
8.69735e-06
1.6153e-05
4.07505e-06
1.07433e-05
5.29464e-05
6.21871e-05
3.52961e-05
2.69099e-05
3.2438e-05
5.06176e-05
0.000371516
5.15043e-05
4.71214e-05
7.43039e-05
0.000175393
0.000287158
0.000418406
0.000417103
0.000380179
0.000334767
0.000273344
0.000214186
0.000159542
0.000114347
8.85212e-05
8.50231e-05
8.48165e-05
7.70749e-05
7.76334e-05
8.34779e-05
9.27706e-05
7.81723e-05
7.17006e-05
7.58303e-05
9.39622e-05
0.000127808
0.000182025
0.000242682
0.000325448
0.000397242
0.000455196
0.000475183
0.000582686
0.000588198
0.000588224
0.000588663
0.000589749
0.000590094
0.000588621
0.000585418
0.000546594
0.00049319
0.000470755
0.000325951
0.000322519
0.000159853
9.11544e-05
0.000123695
0.00012223
0.000120207
0.000118023
0.000116099
0.000110917
0.000268863
0.000172968
0.000173812
0.000231506
0.00011382
0.000115793
0.000118593
0.000180287
0.000117843
0.000117784
0.000113628
0.000172312
0.000241265
0.000139962
0.000119511
0.000105541
9.2482e-05
7.03922e-05
5.37552e-05
4.20541e-05
8.41406e-05
8.04987e-05
1.97466e-05
1.54564e-05
1.30117e-05
1.13083e-05
7.74919e-05
7.0929e-06
3.31125e-06
2.82447e-05
0.000123798
0.000171923
0.000138351
9.13315e-05
4.77226e-05
2.33877e-05
1.04699e-05
4.38683e-06
2.54117e-06
2.86703e-06
7.11755e-06
0.000106992
0.000776351
4.27195e-05
2.38174e-05
2.7102e-05
4.27417e-05
5.01739e-05
4.47921e-05
4.82717e-05
9.11063e-05
0.000194056
0.000304781
0.000818169
0.000440626
0.000383502
0.000324183
0.000261329
0.000207224
0.000157997
0.000120967
0.000102033
0.000113616
0.00042772
0.000116883
0.000293253
0.000107948
0.00010318
9.30573e-05
9.16062e-05
9.54082e-05
0.000113183
0.000148988
0.000203352
0.000273067
0.000350737
0.00040304
0.00043138
0.00047818
0.000587274
0.000793298
0.00058945
0.000588102
0.000588081
0.000587863
0.000585919
0.000582032
0.000495739
0.000488495
0.000381201
0.000308302
0.000277103
0.000160876
8.95476e-05
0.000122269
0.000121243
0.000119448
0.00011686
0.000223707
0.00017444
0.00017467
0.000171319
0.000172541
0.000112573
0.000113085
0.000115242
0.00011799
0.000119076
0.000117279
0.000117565
0.000112843
0.00017162
0.000157303
0.000139085
0.000118716
0.000104983
9.06254e-05
6.9854e-05
5.35024e-05
4.18039e-05
3.44066e-05
2.85346e-05
1.96065e-05
1.53793e-05
1.29541e-05
1.12609e-05
1.00078e-05
7.0562e-06
2.95639e-06
3.72994e-05
0.000781885
0.000223528
0.000106572
6.02029e-05
2.88077e-05
1.26392e-05
5.485e-06
2.50365e-06
8.78129e-06
8.07907e-06
8.99154e-06
3.59435e-05
4.8302e-05
2.88448e-05
1.93306e-05
2.42658e-05
3.69238e-05
4.12152e-05
4.08468e-05
5.50012e-05
0.000123687
0.000231437
0.000328716
0.000425388
0.000418311
0.00038691
0.000316904
0.00026588
0.000212994
0.000168517
0.000135937
0.000116869
0.000114642
0.000114321
0.000108537
0.000112877
0.00012446
0.000447549
0.000122276
0.00012276
0.000123276
0.000137766
0.000175834
0.000233157
0.000290942
0.000357494
0.000410835
0.000464278
0.000479661
0.000584437
0.000626214
0.000586675
0.000585647
0.000585452
0.000585416
0.000582848
0.000542549
0.000491613
0.000480939
0.000362901
0.000284399
0.000201712
0.000127286
0.000168625
0.000120668
0.000119838
0.000178007
0.000115443
0.000113416
0.00017193
0.000171013
0.000169237
0.000170913
0.000110768
0.000112145
0.000114517
0.000117093
0.000117849
0.00011656
0.000213949
0.00011174
0.000274888
0.000155105
0.000137958
0.000117662
0.000104264
8.8697e-05
6.91835e-05
5.31684e-05
4.14774e-05
3.38295e-05
2.76147e-05
1.9429e-05
1.52771e-05
1.28773e-05
1.11978e-05
9.6647e-06
7.01061e-06
2.29668e-06
7.36965e-05
0.000294928
0.000127989
6.328e-05
3.60977e-05
1.62229e-05
2.63454e-05
3.25514e-06
1.92107e-06
1.71381e-06
2.1577e-06
3.42139e-06
2.29668e-05
2.71334e-05
3.22334e-05
4.41526e-05
4.08256e-05
6.06083e-05
3.88992e-05
4.23695e-05
7.35346e-05
0.000514471
0.000588369
0.000339126
0.000407316
0.000402027
0.000388916
0.000337341
0.000278393
0.000229871
0.000190014
0.000156892
0.000139275
0.0001292
0.000122186
0.000119217
0.000124835
0.000137944
0.000148175
0.000144411
0.000163893
0.000405779
0.00016706
0.000202081
0.000274761
0.000351475
0.000381814
0.000415454
0.000820826
0.000478777
0.000580327
0.000804685
0.000583685
0.000582281
0.000582197
0.000582489
0.000577795
0.000491043
0.00048458
0.000468576
0.000338033
0.000255019
0.000194212
0.000125915
0.000165251
0.000118925
0.000117819
0.000116666
0.000113815
0.00011162
0.000168955
0.000167492
0.000166629
0.000168975
0.000108967
0.000110866
0.000113622
0.000116039
0.000116677
0.000115707
0.000220573
0.000175489
0.000167169
0.000153203
0.000136601
0.000116359
0.000103369
8.6883e-05
6.83962e-05
5.2756e-05
4.10805e-05
3.32815e-05
8.00529e-05
1.92196e-05
1.51584e-05
1.27808e-05
1.11207e-05
9.38574e-06
6.9575e-06
1.65642e-06
2.72005e-05
9.12116e-05
5.38559e-05
3.30492e-05
2.01413e-05
3.17459e-05
2.77375e-05
1.16263e-05
2.04531e-06
2.03772e-06
2.94649e-06
1.16612e-05
1.44873e-05
1.72761e-05
1.69209e-05
2.26442e-05
2.93048e-05
3.54697e-05
3.93437e-05
0.000116854
0.000104252
0.000194878
0.000280202
0.000346355
0.00081476
0.000812716
0.000393836
0.000786818
0.000302304
0.000257147
0.00021622
0.000191125
0.00016935
0.000156604
0.000146933
0.00014422
0.000145658
0.000157507
0.000181401
0.000432522
0.000171908
0.000169887
0.000184776
0.000225883
0.000291844
0.000819449
0.000392927
0.000414333
0.000431746
0.000472986
0.000508454
0.000807995
0.000579554
0.000578014
0.000577216
0.000577324
0.000814994
0.000484686
0.000473588
0.00044721
0.000306662
0.000331224
0.000221376
0.000125495
0.000118884
0.000116785
0.000115565
0.000114527
0.000112038
0.000109584
0.000165412
0.000163628
0.00016357
0.000166784
0.000169579
0.000109364
0.00011258
0.000114879
0.000211974
0.000114714
0.000114442
0.000172766
0.000163732
0.00015146
0.000135028
0.00011482
0.000148567
8.49564e-05
6.73455e-05
5.22683e-05
4.06205e-05
3.27275e-05
2.60132e-05
1.89775e-05
1.50169e-05
1.2666e-05
1.10307e-05
9.15209e-06
6.89735e-06
4.56891e-06
3.24968e-05
4.90257e-05
2.85601e-05
1.65136e-05
9.92242e-06
2.67964e-05
4.5634e-06
2.43219e-06
2.29767e-06
7.88569e-06
1.26976e-05
1.09475e-05
2.35685e-05
1.53347e-05
1.85285e-05
2.61509e-05
3.30537e-05
3.70051e-05
4.01458e-05
5.44061e-05
0.00044646
0.000236071
0.000644697
0.000383451
0.000414651
0.000404463
0.000398548
0.000369424
0.000317206
0.000721412
0.00025515
0.00023082
0.000210138
0.000197235
0.00044079
0.000179928
0.000179817
0.000187482
0.000193898
0.000184915
0.000178727
0.000184889
0.000206059
0.000244854
0.000296487
0.000355513
0.000385774
0.000409937
0.000424289
0.00046681
0.000477386
0.000812114
0.000538686
0.000537962
0.000537886
0.000538124
0.000487384
0.000474691
0.000379079
0.000338067
0.000488766
0.000260495
0.000154606
8.51158e-05
0.000116129
0.000114351
0.000113004
0.000112265
0.000250133
0.000272571
0.000161293
0.000159607
0.000160057
0.000265166
0.000166528
0.000170261
0.000111364
0.000113651
0.000219328
0.000113611
0.000112878
0.00016979
0.000160485
0.000217482
0.000133267
0.000113058
9.98419e-05
8.2932e-05
6.61958e-05
5.16297e-05
4.01021e-05
3.21633e-05
2.52014e-05
1.87097e-05
1.48536e-05
1.25324e-05
1.09265e-05
8.95044e-06
6.83039e-06
8.34337e-07
1.05813e-05
3.52745e-05
3.03755e-05
7.93842e-06
4.41029e-06
3.65104e-06
2.53881e-06
2.43356e-06
3.28068e-06
1.13151e-05
2.1398e-05
4.36356e-05
2.424e-05
3.94052e-05
4.09111e-05
6.39912e-05
3.91148e-05
9.29322e-05
4.53771e-05
6.47484e-05
0.000129021
0.000213832
0.000295585
0.000810307
0.000822686
0.000407887
0.00039768
0.000809365
0.000342501
0.00031118
0.000293711
0.000288125
0.000272081
0.000254748
0.000234874
0.000569403
0.000219265
0.00022978
0.000572025
0.000204453
0.000196332
0.000205932
0.000230198
0.000262825
0.000300958
0.000363407
0.00038401
0.000405968
0.000417865
0.000427078
0.000470592
0.000478953
0.00048475
0.000817179
0.000486386
0.000488088
0.000478449
0.000457829
0.000349014
0.000535773
0.000413591
0.000186732
0.000126033
0.000158039
0.000113561
0.000111764
0.000109838
0.000221957
0.00010663
0.00016349
0.000156761
0.000155378
0.000156197
0.000159984
0.000163173
0.000167316
0.000109767
0.000230469
0.00011247
0.000248167
0.000264298
0.00016647
0.000157266
0.00021371
0.00013117
0.000111088
9.73864e-05
8.08875e-05
6.50193e-05
5.08846e-05
3.95326e-05
3.13825e-05
2.44866e-05
1.84183e-05
1.46686e-05
1.23837e-05
1.08133e-05
8.77177e-06
6.75637e-06
3.37822e-07
4.51405e-06
9.02066e-06
2.11084e-05
3.45086e-06
2.31199e-06
8.33925e-06
2.37303e-06
7.37665e-06
1.45858e-05
9.75702e-06
3.43764e-05
4.25393e-05
8.70487e-05
3.53554e-05
3.41537e-05
3.90936e-05
4.55258e-05
0.000107182
0.000128311
0.000247637
0.000146308
0.000215739
0.000291035
0.000368034
0.000819027
0.000405981
0.000397581
0.000393627
0.000364868
0.000352558
0.00034777
0.000386355
0.000795002
0.000755822
0.000311596
0.000287718
0.000271267
0.000264922
0.00025954
0.000232419
0.000224928
0.000234905
0.000257328
0.000282892
0.000319473
0.000365563
0.000383529
0.000403262
0.000411969
0.000418677
0.000423232
0.00047105
0.000478514
0.000479371
0.000479773
0.000820088
0.000782576
0.000355573
0.000311074
0.000258973
0.000248303
0.000144663
8.30032e-05
0.000132907
0.00016222
0.000108658
0.000106609
0.000251327
0.000161702
0.000156841
0.000151964
0.000150634
0.000152063
0.000155562
0.000159477
0.000271048
0.000266212
0.000110611
0.000110603
0.000110202
0.000171742
0.000162698
0.000153953
0.000143022
0.000123414
0.000108931
9.49209e-05
7.88218e-05
6.37584e-05
5.00687e-05
3.8954e-05
3.06071e-05
2.38063e-05
1.80899e-05
1.44626e-05
1.22231e-05
1.0685e-05
8.61236e-06
6.67457e-06
5.13332e-08
5.90627e-06
1.26104e-05
1.08258e-05
2.18669e-06
2.06564e-06
2.47447e-06
7.39589e-06
1.05519e-05
1.68758e-05
3.12391e-05
6.03199e-05
0.000108361
0.000115355
4.64096e-05
4.14242e-05
9.75561e-05
4.66238e-05
5.57552e-05
7.70553e-05
0.000112528
0.000167499
0.000235092
0.000292621
0.000345631
0.000404809
0.000406828
0.000398932
0.000393027
0.000392252
0.000384992
0.000378779
0.00039733
0.000389675
0.00037572
0.00079716
0.000363667
0.000786439
0.000335422
0.000750929
0.000272963
0.000268388
0.00027627
0.000287
0.000312981
0.000340582
0.000368628
0.000381589
0.000826032
0.000405658
0.000408451
0.000410997
0.000412093
0.00047082
0.000821375
0.000468024
0.000770276
0.000359978
0.000317562
0.00026763
0.000312893
0.000195268
0.000115465
0.000152098
0.000108965
0.000107049
0.000105413
0.000102833
0.000159161
0.000255677
0.000150663
0.00014649
0.00014566
0.000147504
0.000151173
0.000155424
0.000160407
0.000165955
0.000108568
0.000266119
0.000170167
0.00016747
0.000158825
0.000150329
0.000139081
0.000121004
0.000106626
9.23914e-05
7.68331e-05
0.000106848
4.91952e-05
3.83468e-05
2.9852e-05
2.31525e-05
1.77473e-05
1.42439e-05
1.20433e-05
1.05436e-05
8.40158e-06
6.58765e-06
7.98576e-07
5.32487e-06
8.21585e-06
8.96824e-06
3.08466e-06
8.71936e-06
5.29908e-06
1.42652e-05
1.98792e-05
2.50193e-05
3.9349e-05
3.54371e-05
5.73012e-05
0.000410032
5.46319e-05
4.56616e-05
4.48362e-05
4.58724e-05
6.9753e-05
0.000339802
0.000136031
0.000192796
0.00057488
0.000302338
0.000341811
0.000818833
0.000823087
0.000401473
0.000415415
0.000819332
0.000409499
0.000406708
0.000406586
0.000400859
0.000392969
0.000399641
0.000392934
0.000393363
0.000794962
0.000346098
0.000326048
0.000305352
0.000308819
0.000334576
0.00035665
0.000361398
0.00035567
0.000374397
0.000379757
0.000396167
0.000821099
0.000819632
0.000818546
0.00039402
0.000384491
0.000372672
0.000353343
0.000320027
0.000273511
0.000323921
0.000178511
0.00012556
7.91995e-05
0.000107744
0.000105854
0.000103108
0.000246227
0.000256728
0.000151248
0.000148475
0.000144329
0.000140948
0.000140582
0.000142804
0.000146506
0.000151256
0.000156232
0.000161776
0.000167461
0.000166756
0.00016612
0.000163403
0.000154926
0.000146633
0.00013504
0.000118442
0.000104196
8.98252e-05
7.48669e-05
6.03164e-05
4.83313e-05
8.72908e-05
2.91264e-05
2.25193e-05
1.74004e-05
1.40116e-05
1.18471e-05
1.03892e-05
8.22435e-06
6.49384e-06
8.40929e-07
1.13252e-06
2.04898e-06
4.0971e-06
8.31283e-06
1.5493e-05
1.38345e-05
2.72557e-05
2.30068e-05
2.89209e-05
3.52895e-05
4.76049e-05
6.25179e-05
0.000115597
5.81364e-05
4.87591e-05
4.72643e-05
4.69497e-05
6.44895e-05
0.000107296
0.000157574
0.000227947
0.000677863
0.000312103
0.000340005
0.000803997
0.000397343
0.000394842
0.000824959
0.000429194
0.000823944
0.000425001
0.000430078
0.000426279
0.000412732
0.000408776
0.00041244
0.000409971
0.000395486
0.000379645
0.000809868
0.000800687
0.00035687
0.000356816
0.000820388
0.000367382
0.000353201
0.000817474
0.000364657
0.000377927
0.000802783
0.000367825
0.000363752
0.000362269
0.000728071
0.000652263
0.000312029
0.000500441
0.000347181
0.000218608
0.0001353
0.000114126
0.000131908
0.000104841
0.00018464
9.89735e-05
0.000250959
0.000144373
0.000143644
0.000141242
0.000137927
0.000135339
0.000135383
0.000137987
0.00014185
0.000146778
0.000151821
0.000157271
0.000268915
0.000162485
0.000162055
0.000255598
0.00015092
0.000142855
0.00013105
0.000115655
0.000101682
8.7266e-05
7.29019e-05
5.83707e-05
9.43274e-05
3.66275e-05
2.83901e-05
2.19112e-05
1.7035e-05
1.37607e-05
1.16388e-05
1.01408e-05
8.04923e-06
6.39625e-06
3.73689e-06
4.33285e-06
4.85209e-06
2.07621e-05
5.15578e-05
2.79828e-05
2.94158e-05
6.37961e-05
8.15441e-05
0.000106773
5.59047e-05
0.000111687
7.11487e-05
0.000128915
0.000111477
5.37775e-05
5.21994e-05
0.000110368
0.000162301
0.000404297
0.000177648
0.000563619
0.000324964
0.000323181
0.000332467
0.000359142
0.000380612
0.000392231
0.000394259
0.00040877
0.000415639
0.000422407
0.000432096
0.000822262
0.0004257
0.000422264
0.000421709
0.000420701
0.00082008
0.000388506
0.000381103
0.000363623
0.000362488
0.000379267
0.000823021
0.000365102
0.000357264
0.000354514
0.000334514
0.000352215
0.000347004
0.000350886
0.000324633
0.000644763
0.000632106
0.000290481
0.00026584
0.00042324
0.000227211
0.000141123
7.59164e-05
7.36091e-05
0.000130336
0.000101646
9.85045e-05
0.000142166
0.000139973
0.000136229
0.000136034
0.0001342
0.000131562
0.000129541
0.000129961
0.000132929
0.000137188
0.000142179
0.000147337
0.000152546
0.000159018
0.000158025
0.000157681
0.000154857
0.000146688
0.000207531
0.000121803
0.000163545
0.000145734
8.46421e-05
7.09753e-05
5.6432e-05
4.57712e-05
3.55574e-05
2.76393e-05
2.13539e-05
1.66559e-05
1.34922e-05
1.14212e-05
9.89113e-06
7.87346e-06
6.30023e-06
1.31179e-05
2.53666e-05
1.95273e-05
7.42411e-05
0.000266906
4.65209e-05
9.51821e-05
5.33601e-05
0.000105151
7.15776e-05
0.000105392
0.000107723
7.41567e-05
9.41119e-05
9.46484e-05
5.93818e-05
5.87682e-05
0.000108093
8.40154e-05
0.000478035
0.000203734
0.000252341
0.000666031
0.000299641
0.000324743
0.000340454
0.000807682
0.00036852
0.000371725
0.000383476
0.000404103
0.000405622
0.000822786
0.000416284
0.000822831
0.000426648
0.000427512
0.00081998
0.000822779
0.000392934
0.000386951
0.000385017
0.000383393
0.000383744
0.000358943
0.000342861
0.000331608
0.000328901
0.000346692
0.000637067
0.000405369
0.000341459
0.000350427
0.00036212
0.000362268
0.000448059
0.000318008
0.000250915
0.000147429
0.000112459
0.000140929
0.000100379
9.95417e-05
9.78593e-05
0.000140322
0.000134005
0.000131017
0.000128386
0.000201289
0.000127358
0.000119877
0.000118528
0.000119347
0.00012775
0.000132403
0.000137503
0.000142632
0.000147709
0.000250707
0.000153417
0.00015327
0.000150373
0.000142454
0.000134682
0.000117888
0.00010906
9.55395e-05
8.16329e-05
6.90895e-05
5.4576e-05
9.29811e-05
3.45657e-05
2.68518e-05
2.0797e-05
1.62818e-05
1.32147e-05
1.11877e-05
9.63598e-06
7.69696e-06
6.19583e-06
1.87361e-05
0.00010675
5.55718e-05
0.000128839
0.000172717
0.000112404
5.20532e-05
0.000114746
0.00010622
6.92882e-05
7.23724e-05
0.000101369
8.16478e-05
8.77823e-05
7.46707e-05
0.00010739
6.22491e-05
6.54834e-05
8.70412e-05
0.000139996
0.000456513
0.000514796
0.000257871
0.000667544
0.000742701
0.000798738
0.000795235
0.000326074
0.000328016
0.000362351
0.000816988
0.000818838
0.000375624
0.000375162
0.000393521
0.000821616
0.000821449
0.000416969
0.00040383
0.000824164
0.000392461
0.000393448
0.000826304
0.000364729
0.000806474
0.000316592
0.000709466
0.000307483
0.000348476
0.000510122
0.000382494
0.000352362
0.000319327
0.000314168
0.000285283
0.000258754
0.000185099
0.000149901
0.00011257
0.000138835
0.000131543
0.000151422
9.49178e-05
0.000137957
0.000130808
0.000124258
0.000120788
0.000119164
0.00011488
0.000114265
0.000112815
0.000111869
0.000113026
0.000116496
0.000179956
0.000131793
0.000137148
0.000212728
0.000147533
0.000230101
0.000147849
0.000144824
0.000137408
0.000129212
0.000113091
0.000154236
9.15094e-05
7.79716e-05
6.65631e-05
9.9417e-05
4.2155e-05
3.34164e-05
2.59396e-05
2.01243e-05
1.58238e-05
1.28643e-05
1.08857e-05
9.33084e-06
7.48104e-06
6.06645e-06
3.50501e-06
3.32703e-05
7.56196e-05
7.82317e-05
7.09356e-05
5.33309e-05
5.33053e-05
8.29495e-05
7.29089e-05
7.2994e-05
0.00015745
0.000142142
0.000140637
9.2528e-05
0.000101613
7.06985e-05
6.96282e-05
0.000175768
0.00034679
0.000150296
0.000184146
0.000213338
0.000230257
0.00026781
0.000734266
0.00074379
0.000740482
0.000312513
0.000734689
0.000307336
0.000315364
0.000327138
0.000329803
0.000346413
0.000364176
0.000363016
0.000366146
0.000371184
0.000824219
0.000392677
0.000826739
0.000828472
0.000825174
0.000365881
0.000317165
0.00029146
0.000354799
0.000351458
0.000307808
0.000246321
0.000140901
0.000171376
0.000165157
0.000163897
0.000112421
0.000103216
0.000119384
0.000129285
9.97207e-05
0.000144537
0.000165024
0.000209622
0.000129904
0.000126946
0.000120384
0.000113196
0.000105336
0.000104338
0.000105224
0.000105926
0.00010487
0.000104301
0.00010567
0.000109366
0.000114428
0.000124976
0.000130364
0.000134457
0.000139577
0.000140577
0.000141212
0.000138532
0.000131525
0.000117886
0.000107454
9.90671e-05
8.69797e-05
7.39346e-05
6.29482e-05
4.95859e-05
3.98858e-05
3.17441e-05
2.48734e-05
1.933e-05
1.52969e-05
1.24468e-05
1.05097e-05
9.01523e-06
7.22764e-06
5.90056e-06
9.1804e-06
5.33048e-06
5.03818e-05
7.12829e-05
5.6038e-05
3.28221e-05
3.20265e-05
4.9084e-05
5.56519e-05
7.48751e-05
0.000402007
0.000115427
0.000107439
0.00015274
0.000127709
0.000156315
9.06507e-05
0.000109154
0.000516667
0.000184565
0.000517921
0.000202693
0.000223587
0.000251024
0.00067028
0.000273326
0.000267328
0.000266793
0.000655611
0.000275855
0.000718996
0.000738941
0.000290329
0.00031806
0.00078439
0.000307378
0.000325428
0.000347153
0.000373762
0.000824579
0.000363979
0.000359439
0.00036318
0.000792413
0.000294639
0.000348387
0.000323798
0.000200236
0.000134591
0.000113393
0.000112291
0.000131884
0.000109466
0.000130425
0.000105144
0.000125418
0.00012484
0.000141851
9.50982e-05
9.17733e-05
8.81728e-05
0.000122318
0.000117744
0.000115738
0.000169422
9.83972e-05
9.50022e-05
9.47838e-05
0.000148162
0.000149464
9.71902e-05
9.68552e-05
9.85e-05
0.0001023
0.000107214
0.000113276
0.00012321
0.000127192
0.000131844
0.000133451
0.000134174
0.000132189
0.000179851
0.000111688
0.000101877
9.30809e-05
8.24932e-05
7.00741e-05
5.93224e-05
9.71258e-05
3.75741e-05
3.02285e-05
2.38042e-05
1.85656e-05
1.47642e-05
1.20194e-05
1.01172e-05
8.69897e-06
6.98048e-06
5.71937e-06
1.05837e-05
7.49015e-06
2.29706e-05
3.68168e-05
2.55502e-05
1.26145e-05
1.43439e-05
2.12024e-05
3.00151e-05
5.96414e-05
0.000119427
0.000144941
0.000130323
0.000129528
0.000223832
0.000116039
0.000126721
0.000474706
0.000158357
0.000167572
0.000184668
0.000559179
0.000584393
0.000583447
0.000610189
0.000242328
0.000236788
0.000228893
0.000218111
0.000228895
0.000595555
0.000233151
0.000247213
0.000689743
0.000264782
0.000274579
0.000738312
0.000301145
0.000313545
0.000331636
0.000342163
0.000798858
0.000310269
0.000286774
0.000554801
0.000310322
0.000218145
0.000109018
0.00010644
0.000105522
0.000105836
0.00016218
0.000156904
0.000102274
0.000100186
9.79339e-05
9.57642e-05
9.24715e-05
8.88522e-05
0.000122227
0.000115413
0.000181098
0.000105814
0.000160392
9.45604e-05
8.78086e-05
8.46443e-05
8.4907e-05
8.67425e-05
8.86971e-05
0.000136735
8.92583e-05
9.08569e-05
9.5122e-05
0.000100259
0.00010659
0.000111408
0.000114969
0.000124129
0.000191037
0.000127083
0.000125609
0.000114006
0.000105674
9.62371e-05
8.7415e-05
7.75785e-05
6.62442e-05
5.58439e-05
4.41918e-05
3.5416e-05
2.87657e-05
2.26684e-05
1.77844e-05
1.42208e-05
1.15657e-05
9.74847e-06
8.36985e-06
6.73196e-06
5.52913e-06
1.06652e-05
1.00922e-05
2.21043e-05
2.9906e-05
3.02148e-05
3.57518e-05
3.56304e-05
2.59817e-05
2.34429e-05
5.14179e-05
9.39784e-05
0.000448149
0.00015617
0.000466673
0.00015239
0.000157421
0.000167652
0.000163436
0.000163088
0.000160279
0.000166692
0.00062086
0.000177438
0.000199224
0.000206356
0.000212591
0.000219812
0.000542429
0.000188817
0.000494063
0.000192238
0.000195263
0.000483448
0.000211597
0.000567313
0.000244483
0.000269595
0.000283105
0.000304669
0.000295986
0.000295552
0.000285373
0.000309466
0.000536229
0.000295292
0.000133692
0.000157793
0.000148474
0.000146151
0.000146005
0.000238725
0.00023124
0.000222558
9.5706e-05
0.000220381
9.12536e-05
0.000129482
0.000211917
0.000116391
0.000109735
0.000103041
9.50447e-05
9.08699e-05
8.88723e-05
8.30182e-05
7.74339e-05
7.45998e-05
7.53164e-05
7.73861e-05
7.96984e-05
8.11918e-05
8.23108e-05
8.3656e-05
8.77991e-05
9.3121e-05
0.000100046
0.000157104
0.000107945
0.000111704
0.000114043
0.000114876
0.00011383
0.000161259
9.93464e-05
9.03802e-05
8.21475e-05
7.30541e-05
6.21996e-05
5.25545e-05
4.15648e-05
3.33836e-05
2.73102e-05
2.15458e-05
1.69235e-05
1.36609e-05
1.10898e-05
9.39223e-06
8.05573e-06
6.46959e-06
5.32785e-06
1.0692e-05
1.06756e-05
1.68325e-05
2.92974e-05
3.80112e-05
4.22964e-05
4.84718e-05
4.94689e-05
3.49782e-05
3.7225e-05
0.000106781
0.000128696
0.000176787
0.000194818
0.000189268
0.000219074
0.000220816
0.000536888
0.000182676
0.000160512
0.000149218
0.000139273
0.000145439
0.000165519
0.000184906
0.000567169
0.000191524
0.000171179
0.000154491
0.00015442
0.000157847
0.000173074
0.000184716
0.000196102
0.000215529
0.000223169
0.000247524
0.000648272
0.000273121
0.000282524
0.000303049
0.000294078
0.000508081
0.000288016
0.000135806
0.000146704
0.000206108
0.000128091
0.000127212
0.00012897
0.0001321
0.000130846
0.000129422
0.000128603
0.000124329
0.000119129
0.000114567
0.000109418
0.000103958
9.45068e-05
8.80935e-05
8.32532e-05
7.93625e-05
7.69095e-05
0.000123675
6.71001e-05
6.54121e-05
6.65518e-05
6.86354e-05
7.10177e-05
7.28437e-05
7.40894e-05
7.60979e-05
8.08862e-05
8.60809e-05
9.30234e-05
9.76865e-05
0.000101029
0.000104536
0.000106581
0.000108059
0.000107383
0.000100929
9.2897e-05
8.48363e-05
7.63771e-05
6.84197e-05
0.000108562
4.92085e-05
3.90582e-05
3.15002e-05
2.56708e-05
2.03664e-05
1.61023e-05
1.30003e-05
1.06145e-05
9.02344e-06
7.75031e-06
6.20658e-06
5.10686e-06
1.08013e-05
1.09575e-05
1.21313e-05
1.88793e-05
2.35865e-05
2.25436e-05
2.88337e-05
4.59954e-05
4.97895e-05
3.72752e-05
5.57497e-05
0.000115501
0.000164822
0.000688147
0.000209264
0.000558994
0.000543843
0.000193212
0.000559664
0.000148935
0.000585727
0.000118615
0.000121257
0.00014
0.000621564
0.000624575
0.000171119
0.000421645
0.000138658
0.000134397
0.000145863
0.000182903
0.000326934
0.000199883
0.000217783
0.000250801
0.000545527
0.000250971
0.000259901
0.000583955
0.000295586
0.000464938
0.000269988
0.000162928
0.000133609
0.000122949
0.000109474
0.000104458
0.000104845
0.000107699
0.000181205
0.000112723
0.000111929
0.000185195
0.000181976
0.000104275
9.7032e-05
9.25166e-05
0.000143049
8.27504e-05
7.62881e-05
7.15641e-05
6.7868e-05
6.53841e-05
6.18585e-05
5.78923e-05
5.67578e-05
5.81651e-05
6.05296e-05
6.35028e-05
0.000113456
6.70649e-05
6.91324e-05
7.35627e-05
7.92644e-05
8.58664e-05
9.02783e-05
9.42167e-05
9.77054e-05
9.95642e-05
0.000155759
0.000155634
9.41479e-05
8.65756e-05
7.92773e-05
7.10876e-05
6.36232e-05
5.48818e-05
4.58494e-05
3.66351e-05
2.96621e-05
2.41658e-05
1.92189e-05
1.52932e-05
1.23495e-05
1.01773e-05
8.64316e-06
7.4108e-06
5.97386e-06
4.91173e-06
1.09491e-05
1.09634e-05
1.03662e-05
1.12906e-05
1.1268e-05
9.60991e-06
1.30967e-05
2.7358e-05
4.51914e-05
4.14313e-05
3.71201e-05
3.1211e-05
0.000120983
0.000158885
0.000180808
0.00020222
0.000189551
0.000157366
0.000141462
0.000120129
0.000100686
8.87987e-05
0.000356064
0.000112313
0.000135515
0.000375459
0.000180376
0.000234974
0.000144375
0.00012063
0.000100557
0.000110765
0.000129746
0.000162351
0.000217517
0.00026234
0.000283626
0.000267975
0.000277482
0.000282656
0.000287916
0.000186761
0.000153904
0.000125814
0.000105865
0.000145098
8.92621e-05
8.56719e-05
8.7302e-05
9.12456e-05
0.000149114
9.18341e-05
9.18142e-05
9.27681e-05
9.04811e-05
8.69137e-05
8.33373e-05
7.91475e-05
7.56154e-05
0.000122099
6.45755e-05
6.04888e-05
5.74456e-05
5.53974e-05
5.25689e-05
5.02054e-05
4.95528e-05
5.12186e-05
5.36363e-05
5.615e-05
5.84676e-05
6.00905e-05
6.26957e-05
6.71784e-05
7.22917e-05
7.89028e-05
8.33215e-05
8.71548e-05
9.06178e-05
9.25555e-05
9.46002e-05
0.0001475
8.74845e-05
8.05912e-05
7.35694e-05
6.62393e-05
5.90523e-05
5.10685e-05
4.29099e-05
3.43433e-05
2.78709e-05
2.27288e-05
1.81047e-05
1.45041e-05
1.17052e-05
9.72938e-06
8.27783e-06
7.07175e-06
5.73086e-06
4.76445e-06
1.10957e-05
1.05674e-05
9.28717e-06
7.80178e-06
6.00041e-06
4.17671e-06
5.8773e-06
1.49739e-05
3.16963e-05
4.00051e-05
3.05506e-05
3.72599e-05
6.01867e-05
0.000104263
0.000130978
0.000143765
0.000553072
0.000439716
0.000104425
0.00030478
6.65678e-05
6.15308e-05
7.04843e-05
8.78374e-05
0.000107434
0.000154869
0.000126174
0.000102507
0.000107798
5.31111e-05
4.51004e-05
6.22444e-05
0.000109585
9.3834e-05
0.000148303
0.000217965
0.000258902
0.000390379
0.000238483
0.000336836
0.000171239
0.000140619
0.000115661
0.000145401
8.3472e-05
7.48929e-05
0.000115656
6.7404e-05
0.000117595
7.47118e-05
0.00012563
7.50543e-05
7.57895e-05
7.70544e-05
0.000127159
7.28814e-05
6.94969e-05
6.57763e-05
6.22831e-05
5.86028e-05
5.4045e-05
5.08474e-05
4.86388e-05
0.000103342
4.47108e-05
4.33224e-05
4.30737e-05
4.4738e-05
4.72697e-05
4.98936e-05
5.23651e-05
5.41423e-05
5.65697e-05
6.08814e-05
6.62327e-05
7.17888e-05
7.62382e-05
8.05413e-05
8.37375e-05
8.55117e-05
8.72678e-05
8.73351e-05
0.000130655
7.41543e-05
6.83479e-05
6.1088e-05
5.49007e-05
4.73397e-05
4.01019e-05
3.22676e-05
2.61308e-05
2.13573e-05
1.70546e-05
1.37255e-05
1.11279e-05
9.27312e-06
7.9159e-06
6.74143e-06
5.51838e-06
4.60632e-06
1.11775e-05
9.63868e-06
7.00672e-06
4.94152e-06
3.07503e-06
1.87001e-06
3.21353e-06
9.61823e-06
2.24271e-05
3.34342e-05
2.98172e-05
2.31409e-05
3.48293e-05
5.9472e-05
8.37008e-05
0.000271531
8.50493e-05
7.08446e-05
0.000236892
5.2085e-05
3.9183e-05
3.3916e-05
3.97017e-05
5.40142e-05
5.23435e-05
4.02288e-05
3.8025e-05
5.92532e-05
8.66049e-05
3.66478e-05
2.61536e-05
2.9882e-05
4.10924e-05
6.24069e-05
0.000110772
0.000190266
0.000184969
0.000194711
0.00017698
0.000213762
0.000127048
0.000140545
8.55057e-05
0.000116576
0.000108596
5.42092e-05
5.16156e-05
5.15682e-05
5.42925e-05
0.000109828
5.88938e-05
5.89243e-05
6.03817e-05
6.19291e-05
6.13536e-05
5.92368e-05
5.65989e-05
5.38181e-05
5.09869e-05
4.82799e-05
4.53227e-05
4.27968e-05
4.09691e-05