/*--------------------------------*- C++ -*----------------------------------*\
  =========                 |
  \\      /  F ield         | OpenFOAM: The Open Source CFD Toolbox
   \\    /   O peration     | Website:  https://openfoam.org
    \\  /    A nd           | Version:  6
     \\/     M anipulation  |
\*---------------------------------------------------------------------------*/
FoamFile
{
    version     2.0;
    format      ascii;
    class       volScalarField;
    location    "0.1";
    object      CO;
}
// * * * * * * * * * * * * * * * * * * * * * * * * * * * * * * * * * * * * * //

dimensions      [0 0 0 0 0 0 0];

internalField   nonuniform List<scalar> 
8000
(
0.000143499
0.00190029
0.00853784
0.0224451
0.030417
0.0236386
0.0139181
0.00655828
0.00256843
0.000834474
0.000313352
0.000239459
0.000445353
0.00246221
0.00224785
0.002317
0.00831829
0.0540234
0.0135622
0.00885606
0.00958764
0.0118507
0.0186317
0.0314038
0.0384205
0.0418028
0.04293
0.042336
0.0416732
0.0608263
0.0543469
0.0330262
0.0270748
0.021605
0.0178722
0.0155829
0.0145678
0.0151676
0.0188445
0.0228691
0.019495
0.01758
0.0185254
0.021873
0.0266766
0.0319962
0.0361919
0.0397307
0.0426818
0.0766923
0.0544909
0.0496473
0.0484158
0.0484272
0.048435
0.0484476
0.0484433
0.0484245
0.0484204
0.0484107
0.045482
0.0451628
0.0402248
0.0413562
0.0367764
0.0295364
0.0334544
0.0303255
0.0301068
0.0299091
0.035215
0.0292847
0.029355
0.0327846
0.0328096
0.0294749
0.0294609
0.0296418
0.0299178
0.0300609
0.0298774
0.0298589
0.0295211
0.0327217
0.0316964
0.030095
0.0282598
0.0267838
0.0331547
0.022865
0.0205851
0.0186872
0.0174109
0.0163861
0.0140266
0.0128243
0.0120434
0.011463
0.0112172
0.00965916
0.000139287
0.0021097
0.00929597
0.023475
0.03373
0.0236718
0.013252
0.00628535
0.00238214
0.000739729
0.000286268
0.000265132
0.000682758
0.00643645
0.00557877
0.00324438
0.00526367
0.00880493
0.00976756
0.0102138
0.0105337
0.0126811
0.019658
0.0321072
0.0387556
0.0425118
0.0430317
0.0423962
0.0411628
0.0410598
0.035338
0.0315722
0.0266336
0.0221283
0.0192639
0.0173334
0.0162668
0.0166703
0.0205585
0.0457879
0.0223733
0.018854
0.0194862
0.0227322
0.0273678
0.0325155
0.036479
0.0398428
0.0426217
0.0443987
0.0481472
0.0483328
0.0484339
0.0484346
0.0484364
0.0484406
0.0484324
0.0484178
0.0484117
0.0484061
0.0454709
0.0450979
0.0400454
0.0418003
0.0337989
0.0294897
0.0334124
0.0302953
0.0300797
0.0298725
0.0297547
0.0292379
0.0293373
0.0327447
0.0327766
0.0294611
0.0294362
0.0296232
0.0298981
0.030057
0.0298602
0.0298499
0.0294982
0.032699
0.0316952
0.0300697
0.0282323
0.0267614
0.0255191
0.0228354
0.0205691
0.0186696
0.0173963
0.0163814
0.0140114
0.0128141
0.012034
0.0114541
0.0112184
0.00965067
0.000162628
0.00318096
0.0114326
0.0319196
0.0237632
0.0175127
0.00980324
0.00773381
0.00524575
0.000776793
0.00149897
0.000287775
0.000989661
0.0130346
0.0135317
0.00624224
0.00397194
0.00533892
0.0143841
0.0474609
0.0148276
0.0149442
0.0219635
0.0335056
0.0393794
0.0438019
0.0436957
0.0425266
0.0408327
0.0377196
0.0346032
0.030985
0.0267521
0.0234819
0.0223962
0.0216409
0.0201246
0.0199595
0.0209479
0.0223688
0.0204651
0.0198543
0.0211642
0.0244023
0.0287661
0.0335781
0.0371024
0.0406182
0.0426478
0.044448
0.0447733
0.0484053
0.0484563
0.0484468
0.0484326
0.0484225
0.0484128
0.0484009
0.0483907
0.0472065
0.04544
0.0449338
0.0396439
0.0404291
0.033777
0.0293887
0.030365
0.0302277
0.0300209
0.0297943
0.0296297
0.0291486
0.0386782
0.0326561
0.0327049
0.0371674
0.0293819
0.0295823
0.0298543
0.0346808
0.029822
0.0298305
0.0294462
0.0326519
0.0376525
0.0300132
0.028173
0.0267136
0.0252604
0.022778
0.0205343
0.0186312
0.0262042
0.0254722
0.0139777
0.0127918
0.0120133
0.0114346
0.0221618
0.00963198
0.000236274
0.00493643
0.0162005
0.0213808
0.0171197
0.0117945
0.00641462
0.00300892
0.00104332
0.000325547
0.00016462
0.000188319
0.000572279
0.0138989
0.055488
0.00842906
0.00320371
0.00383261
0.0102668
0.0133068
0.0124525
0.0153361
0.0243648
0.0348349
0.04001
0.0556206
0.0443568
0.0426784
0.0404924
0.0375908
0.0347844
0.0312385
0.0275465
0.0251931
0.0262712
0.04537
0.0258084
0.0382788
0.0240044
0.0233695
0.0222671
0.0224886
0.0237785
0.0266935
0.0307957
0.0349781
0.0385197
0.0414533
0.0427676
0.0433299
0.0448297
0.0484538
0.0540545
0.0484358
0.0484091
0.0483917
0.0483857
0.0483795
0.0483619
0.0454032
0.0453694
0.0415315
0.039017
0.0388177
0.0336909
0.0292494
0.0302336
0.0301216
0.0299368
0.0296732
0.0368317
0.0327629
0.0327802
0.032517
0.0325984
0.029244
0.0292986
0.0295207
0.0297884
0.02991
0.029762
0.0298021
0.029363
0.0325875
0.0314737
0.0299246
0.0280837
0.0266427
0.0250554
0.0226973
0.020482
0.0185735
0.0172223
0.0160755
0.0139254
0.0127582
0.0119821
0.011405
0.0109839
0.00960277
0.000204784
0.00827298
0.0547567
0.0269027
0.0143253
0.00818099
0.00378586
0.00136514
0.000437947
0.0001635
0.000795666
0.00072722
0.000809495
0.0067543
0.009596
0.00437362
0.00230849
0.00324239
0.00735153
0.00969978
0.0116027
0.0170277
0.0282225
0.0369517
0.041025
0.0439864
0.0437666
0.0428886
0.0402318
0.0380666
0.0354153
0.0321848
0.0288993
0.0266362
0.026139
0.0257805
0.0247093
0.0248842
0.0259943
0.0450142
0.0259665
0.0264275
0.0272088
0.0294529
0.0329657
0.0365567
0.0391743
0.0415208
0.0429172
0.0446078
0.0448483
0.0484036
0.0496906
0.0483889
0.048363
0.0483534
0.048365
0.0483577
0.0471264
0.0453873
0.0452142
0.0409423
0.0381255
0.0359134
0.0318483
0.0333402
0.0300707
0.0299673
0.0345366
0.0295208
0.0293384
0.0325539
0.0324813
0.0323392
0.0324603
0.0290554
0.0291901
0.0294389
0.0296956
0.0297845
0.029684
0.036395
0.0292455
0.0390276
0.0312841
0.0298093
0.0279647
0.0265501
0.024838
0.0225949
0.0204128
0.0184978
0.0170857
0.0158409
0.0138589
0.0127134
0.0119406
0.0113659
0.0108015
0.009566
0.000149653
0.00870173
0.034128
0.0183884
0.00919896
0.00499074
0.00190349
0.00315162
0.000225615
0.000118804
0.000104442
0.000135289
0.000231603
0.00325394
0.00403953
0.00291405
0.00400413
0.00370583
0.00586674
0.009115
0.0125858
0.0210349
0.0499514
0.0504121
0.0412879
0.0434475
0.043255
0.0429617
0.0411885
0.0387295
0.0364195
0.0336756
0.030686
0.0285377
0.0271995
0.0261281
0.0255391
0.0260549
0.0275282
0.0288693
0.0287992
0.0310524
0.0438185
0.0321999
0.0349103
0.0385694
0.0414601
0.0422152
0.0429858
0.0552692
0.0448229
0.0483207
0.0544538
0.048334
0.048307
0.048313
0.0483465
0.0483086
0.0453314
0.0452897
0.0448938
0.0400921
0.0369733
0.0355751
0.0316945
0.0331125
0.0298773
0.0297483
0.0296189
0.0293377
0.0291349
0.0323001
0.0321848
0.0321177
0.0322929
0.0288636
0.02905
0.0293371
0.0295844
0.0296637
0.0295893
0.0366982
0.0328546
0.0322212
0.0311128
0.0296691
0.0278165
0.0264335
0.0246264
0.0224727
0.0203272
0.0184053
0.0169501
0.0249547
0.01378
0.0126554
0.0118891
0.0113178
0.0106542
0.00952271
0.000102682
0.0051889
0.0155452
0.0100418
0.00483801
0.00255288
0.00385783
0.00271251
0.00105147
0.000126611
0.000126536
0.000192746
0.00105044
0.00156678
0.00200768
0.00189704
0.00288785
0.00454692
0.00696773
0.00996422
0.0239866
0.0263453
0.0352336
0.0393372
0.0414731
0.0558409
0.055846
0.0430845
0.0553925
0.0398786
0.0377333
0.0353653
0.0331752
0.0311136
0.0296934
0.0285278
0.0279761
0.0283368
0.0296776
0.0320143
0.044645
0.0320225
0.0322822
0.0337858
0.0363186
0.0392478
0.0558532
0.0424463
0.0429251
0.043255
0.0447149
0.0457941
0.0546081
0.0482676
0.0482458
0.0482511
0.0482962
0.0550104
0.0452673
0.0450654
0.0442478
0.0389592
0.0407075
0.0362032
0.0314291
0.0298992
0.0296353
0.0294866
0.0293775
0.0291306
0.0289098
0.0319968
0.0318582
0.0318546
0.0321003
0.0323161
0.0288845
0.0292149
0.0294579
0.0362661
0.0294777
0.0294614
0.0326299
0.0319385
0.0309489
0.0295049
0.02764
0.0330627
0.0243939
0.022315
0.0202257
0.0182971
0.0168089
0.0154238
0.013689
0.0125867
0.0118278
0.011261
0.0105288
0.0094735
0.000422683
0.00329918
0.0075422
0.0044446
0.00204578
0.000954354
0.00265457
0.000331273
0.00015432
0.000143848
0.000708835
0.00114361
0.00101931
0.00216387
0.0016714
0.00218785
0.00376009
0.00594046
0.00825312
0.0111603
0.0174353
0.0482252
0.0376735
0.0518539
0.0428461
0.0435825
0.0433124
0.0431931
0.0422646
0.0403926
0.0539922
0.0374175
0.0357871
0.0342134
0.0331443
0.0447431
0.0314153
0.0315095
0.0324444
0.0332439
0.0329477
0.032735
0.0334911
0.0351835
0.0372914
0.0393864
0.0414343
0.0422546
0.0427888
0.0430677
0.0445989
0.0448073
0.0548267
0.0469794
0.0469888
0.0470235
0.04708
0.0453172
0.0450927
0.0415576
0.0400756
0.0468679
0.0394022
0.0331965
0.0287561
0.0296084
0.02935
0.0291761
0.0291154
0.0378385
0.0387384
0.0316389
0.0315082
0.0315515
0.0385389
0.0320533
0.0323573
0.0290687
0.0293191
0.0366013
0.0293503
0.0292851
0.0323788
0.031663
0.03639
0.0293184
0.0274362
0.0260115
0.0241419
0.022138
0.0200983
0.0181749
0.0166607
0.0151991
0.0135881
0.0125078
0.0117571
0.0111958
0.0104182
0.00941888
5.18727e-05
0.00109984
0.00421963
0.003685
0.000716066
0.000326137
0.000254312
0.000162874
0.000154039
0.000217616
0.00101861
0.00192989
0.00457312
0.00348109
0.00374277
0.00382587
0.00624889
0.00817335
0.0118135
0.0134744
0.0199809
0.0301781
0.0366834
0.0398906
0.055801
0.0558765
0.0433712
0.043103
0.0558008
0.041332
0.040115
0.0392829
0.0388461
0.0379264
0.0369226
0.0356288
0.0494606
0.0346639
0.035453
0.0496508
0.0344041
0.0341761
0.0349932
0.0364912
0.0380809
0.0395121
0.0417195
0.0421811
0.0426579
0.0428968
0.0430822
0.0447126
0.0449211
0.0450831
0.0551327
0.0452299
0.0453432
0.0451801
0.0446728
0.0405782
0.0482046
0.0444729
0.0351386
0.0314201
0.0325856
0.0292972
0.0290256
0.0287986
0.0366309
0.0284955
0.0317678
0.0312368
0.0311358
0.0312164
0.0315119
0.0317619
0.0321031
0.0288835
0.0370705
0.0291955
0.0378246
0.0384525
0.0320991
0.0313819
0.0361989
0.0290969
0.0272061
0.025722
0.0238792
0.0219458
0.0199505
0.01804
0.0164644
0.0149915
0.0134782
0.0124191
0.0116771
0.0111244
0.0103179
0.00935899
2.19246e-05
0.000345459
0.00086847
0.00220813
0.000243604
0.000147573
0.000768728
0.000149785
0.000663531
0.00131405
0.000831189
0.00311187
0.00893289
0.0130084
0.00618988
0.00593296
0.00755046
0.010724
0.0186757
0.0272772
0.0391596
0.0318227
0.0367851
0.0397395
0.0422213
0.0558927
0.0433204
0.0430926
0.0430287
0.0421119
0.041756
0.0414872
0.0426155
0.0555021
0.0547996
0.0398183
0.0386884
0.0378495
0.0376543
0.0375045
0.0361754
0.0359194
0.036583
0.0377376
0.0389511
0.0402328
0.0417471
0.0421326
0.0425575
0.0427375
0.0428814
0.0429679
0.0448313
0.0450386
0.0451124
0.0451719
0.0553941
0.0545552
0.0408299
0.0392331
0.0371791
0.0376612
0.0327769
0.0285077
0.0317525
0.033578
0.028639
0.0283841
0.0377833
0.0315666
0.0311838
0.0308011
0.0307168
0.0308496
0.0311287
0.0314365
0.0386923
0.0384556
0.028962
0.0289756
0.0289597
0.0324943
0.0317824
0.031084
0.0301507
0.0284384
0.0269514
0.0254231
0.0236063
0.0217367
0.0197866
0.0178976
0.0162654
0.0147908
0.0133561
0.0123213
0.0115878
0.0110452
0.0102253
0.00929374
5.03948e-06
0.000548631
0.00121292
0.00101047
0.000138158
0.000128427
0.000157557
0.000667571
0.000949974
0.00151968
0.00281943
0.00559781
0.0225217
0.0263779
0.0105016
0.00842719
0.0103499
0.0121198
0.0169524
0.0225375
0.02827
0.0335514
0.0376371
0.0397731
0.0414057
0.0433416
0.0433129
0.0431027
0.0429288
0.042946
0.0427442
0.0424916
0.0430056
0.0427413
0.0422997
0.0555262
0.0418343
0.0553789
0.0408645
0.0546853
0.0383054
0.0381836
0.0386031
0.0390773
0.0400447
0.0409538
0.0417936
0.0420499
0.0558048
0.0425665
0.0426241
0.0426774
0.0426879
0.0449504
0.0555133
0.0449418
0.0542516
0.0409643
0.0394924
0.037573
0.04007
0.0364445
0.0308258
0.0321253
0.0287975
0.0284411
0.028211
0.0279015
0.031298
0.0379709
0.0306218
0.0303082
0.0302688
0.0304385
0.0307385
0.0310813
0.031491
0.0319587
0.0287269
0.0384441
0.032341
0.0321318
0.0314481
0.0307522
0.0297726
0.0281654
0.0266752
0.0251108
0.0233302
0.029244
0.0196082
0.017744
0.0160656
0.0145935
0.0132263
0.0122163
0.0114897
0.0109593
0.010107
0.0092246
8.78047e-05
0.000510885
0.000758607
0.000823439
0.000203084
0.000785116
0.000390087
0.00128489
0.00179183
0.0022583
0.00356994
0.0053799
0.014512
0.0474174
0.0138185
0.0099373
0.0101545
0.0127616
0.0217029
0.0444672
0.0310889
0.0354056
0.0498781
0.040048
0.041296
0.0559548
0.0558984
0.0431277
0.043547
0.0558672
0.043367
0.0432752
0.0432311
0.0430713
0.0428349
0.0429948
0.0427933
0.0427311
0.0555214
0.0412513
0.0405661
0.0398061
0.0399663
0.0408277
0.0415266
0.0416157
0.0413031
0.041841
0.0418649
0.0423051
0.0557073
0.0556506
0.0556
0.0421507
0.0418111
0.0414068
0.0407311
0.0395756
0.0378187
0.0405066
0.0346378
0.0313572
0.0279655
0.0286733
0.02827
0.0278529
0.0374203
0.0378958
0.0305559
0.0303494
0.0300315
0.0297957
0.0297972
0.0300046
0.0303159
0.0307088
0.0311149
0.0315842
0.0320793
0.0320305
0.0319913
0.031778
0.0311032
0.0304056
0.0293727
0.0278698
0.0263798
0.0247841
0.0230478
0.0211693
0.0194191
0.0263163
0.0158659
0.0143963
0.0130923
0.012105
0.0113834
0.0108674
0.00998989
0.00915125
9.30962e-05
7.00098e-05
0.00012582
0.000284021
0.000672196
0.00139843
0.00139534
0.00247383
0.00302521
0.00427466
0.00530938
0.00804016
0.0155319
0.0273327
0.0146672
0.0108408
0.0112532
0.0137912
0.0211589
0.028555
0.0332043
0.0373423
0.0526919
0.0403136
0.0412295
0.0556793
0.0430611
0.042961
0.0558396
0.0439041
0.0558571
0.0437427
0.0438848
0.0437628
0.0433608
0.0432316
0.0433387
0.0432355
0.042855
0.0423478
0.0557703
0.055628
0.0416056
0.041446
0.0559109
0.0417412
0.0412021
0.0559163
0.0415382
0.0417812
0.0553848
0.0414097
0.041233
0.0411253
0.0534189
0.0515259
0.0392755
0.0475421
0.0413957
0.0363027
0.0320337
0.0306769
0.0317931
0.0281528
0.034554
0.0272179
0.0375603
0.0298835
0.0298243
0.0296581
0.029432
0.0292636
0.0293028
0.0295485
0.0298834
0.0302997
0.0307189
0.0311786
0.0385328
0.0316505
0.03163
0.038091
0.0307387
0.0300409
0.0289669
0.0275435
0.0260652
0.0244474
0.0227581
0.020831
0.027492
0.0173252
0.0156593
0.0141992
0.0129516
0.011986
0.0112701
0.0107367
0.009873
0.00907318
0.000227656
0.000421997
0.000333181
0.00187128
0.0052212
0.00407436
0.00458077
0.0064813
0.00892751
0.0177269
0.0107041
0.0177128
0.0173831
0.0340859
0.0209776
0.0122355
0.0133111
0.02356
0.0354018
0.0474508
0.0349598
0.0494937
0.0409699
0.0408892
0.0410168
0.0418573
0.0425252
0.0429494
0.0428547
0.0433123
0.0434328
0.043649
0.043877
0.0557261
0.0436547
0.0435394
0.0434901
0.0434307
0.0557949
0.0425388
0.0423189
0.0417126
0.0416246
0.0420822
0.055915
0.0416578
0.0414271
0.0413626
0.0406165
0.0412244
0.0411308
0.0412804
0.0401283
0.0515181
0.0512041
0.0384841
0.0375121
0.044759
0.0366678
0.0322955
0.0275361
0.0271131
0.0313832
0.0275721
0.0270503
0.0295767
0.0293647
0.0290557
0.0290813
0.0289791
0.0288182
0.0286962
0.0287715
0.0290576
0.029438
0.0298709
0.0303056
0.0307452
0.0313188
0.0312494
0.0312388
0.031019
0.0303457
0.0358611
0.0281534
0.0338327
0.0326229
0.0240971
0.0224621
0.0204886
0.0188739
0.0170662
0.015447
0.0140073
0.0128048
0.0118598
0.0111524
0.0106049
0.00975575
0.0089909
0.00135491
0.00192648
0.00173259
0.00691608
0.0436017
0.0115937
0.0111259
0.0124293
0.0203077
0.0165376
0.0209494
0.0202192
0.0181743
0.029873
0.0238443
0.0142493
0.0161792
0.0287537
0.0258069
0.0497953
0.0366225
0.0385627
0.0523509
0.0399251
0.0407845
0.0410954
0.0557368
0.0421592
0.0421916
0.0425426
0.0431339
0.0431381
0.0558851
0.0433753
0.055797
0.0435659
0.043552
0.055508
0.0557838
0.0426156
0.0424324
0.0423233
0.0422141
0.0421522
0.0413746
0.0409092
0.0405887
0.0405566
0.04125
0.0513656
0.0434562
0.0411064
0.0414495
0.0418871
0.0419346
0.0453233
0.0402877
0.0374198
0.0326226
0.0306006
0.0309432
0.0275854
0.0272777
0.026916
0.0293293
0.0286937
0.0284153
0.0282306
0.0352366
0.028297
0.0277735
0.0277092
0.0278273
0.0285417
0.0289686
0.0294216
0.0298638
0.0302978
0.0377461
0.0308239
0.0308325
0.0306095
0.0299411
0.0292291
0.0277204
0.0267673
0.0252959
0.0236949
0.022161
0.0201471
0.0270115
0.0168088
0.0152212
0.0138125
0.0126447
0.0117236
0.0110288
0.0104715
0.00963796
0.00890393
0.0185141
0.0139385
0.00802555
0.0188793
0.0388987
0.0219589
0.0155782
0.0288698
0.0267513
0.0195958
0.020017
0.0274038
0.0213199
0.0223449
0.0187349
0.0215284
0.0186076
0.0214116
0.0267019
0.0329283
0.046349
0.0478057
0.0386741
0.052357
0.054219
0.0556426
0.055585
0.0405738
0.0405832
0.0418601
0.0559301
0.0559051
0.0421987
0.0421587
0.0427002
0.0556678
0.0556442
0.043241
0.0428841
0.0559189
0.0425177
0.042467
0.0559286
0.0415299
0.0557045
0.0400114
0.0535028
0.0398237
0.0413911
0.0470909
0.0426995
0.0415145
0.0402161
0.0400398
0.0388993
0.0377777
0.0344642
0.0338984
0.0306071
0.0307059
0.0313404
0.0324747
0.0263989
0.0290179
0.028258
0.0276139
0.0273049
0.0272366
0.0270147
0.0270646
0.0270223
0.0269951
0.02715
0.0275108
0.0346226
0.0288585
0.0293307
0.03579
0.0302439
0.0367492
0.0303256
0.0300887
0.0294417
0.0286661
0.0271745
0.0331151
0.0247801
0.0231916
0.0217624
0.027851
0.0180923
0.0165024
0.0149436
0.0135758
0.0124476
0.0115453
0.0108734
0.0103124
0.00949585
0.00879506
0.0147217
0.0202546
0.0183636
0.0175016
0.0205804
0.0176173
0.0206517
0.0268472
0.0242198
0.0236883
0.0356121
0.0341876
0.0343362
0.0242835
0.0285686
0.0203503
0.0217404
0.036358
0.0454344
0.0338353
0.0359608
0.0371797
0.0377291
0.0388844
0.0540086
0.054267
0.0541964
0.0401865
0.0540815
0.0398815
0.0400697
0.0405978
0.0406588
0.041262
0.0418701
0.0417313
0.0418037
0.0419271
0.0559336
0.0425144
0.0559644
0.0559064
0.0559161
0.0416672
0.0400287
0.0391328
0.0417224
0.0415044
0.0395639
0.0368282
0.0322651
0.0351376
0.0348201
0.0348236
0.0304913
0.0298079
0.0312792
0.0315507
0.0274811
0.0320843
0.033121
0.0351493
0.0280695
0.0277327
0.0270608
0.0263583
0.0257016
0.0257128
0.0259287
0.0261403
0.0261473
0.0261578
0.026338
0.0267309
0.0272406
0.0281626
0.0286511
0.0290164
0.0294828
0.0296044
0.0296873
0.0294734
0.0288361
0.0276051
0.0265136
0.0255592
0.0241752
0.0226037
0.0211808
0.0192001
0.0175831
0.0160692
0.0146148
0.0132945
0.0122151
0.0113286
0.0106833
0.0101246
0.00933099
0.0086612
0.0243547
0.0101668
0.0239617
0.0222583
0.0193398
0.0169268
0.020754
0.0245534
0.0247099
0.0270723
0.0477275
0.0303298
0.0285496
0.0354328
0.0324216
0.0345991
0.0262315
0.0295464
0.0505189
0.0360079
0.0493167
0.0367578
0.0374631
0.0382456
0.0524362
0.0387723
0.0385259
0.0384449
0.0521091
0.0386114
0.0537255
0.0542717
0.0392061
0.0402027
0.0553837
0.0397118
0.0404442
0.0412158
0.0420327
0.0560329
0.0415932
0.0414067
0.0415928
0.0555003
0.0392508
0.0414689
0.0403829
0.034297
0.0305628
0.0292379
0.0291835
0.031689
0.0289198
0.0315881
0.028298
0.0310471
0.0309588
0.0319633
0.0264758
0.0258375
0.0251594
0.02717
0.0266214
0.0264098
0.0330133
0.0247512
0.0244856
0.0245954
0.0322077
0.0324668
0.0252677
0.0253028
0.0255189
0.025934
0.0264402
0.0270489
0.0279102
0.0282745
0.0287126
0.0288907
0.0289869
0.0288268
0.0345376
0.0268976
0.025837
0.0248094
0.0235541
0.0220102
0.0205648
0.0271111
0.0170542
0.0156576
0.0142758
0.0130149
0.0119762
0.0111059
0.0104728
0.00993216
0.00916343
0.00852104
0.0271794
0.0167091
0.0190165
0.0204342
0.016323
0.015579
0.0192056
0.022293
0.0231627
0.0272307
0.0327291
0.0340238
0.0320687
0.0311817
0.0393857
0.0295096
0.031029
0.0496955
0.0344384
0.0352008
0.0360137
0.0503701
0.0509027
0.0501484
0.0508133
0.0376806
0.0374348
0.0370607
0.0365357
0.0368636
0.050482
0.0369452
0.0374717
0.0530111
0.0381323
0.0385043
0.0541451
0.0395465
0.0398777
0.0405499
0.0409437
0.0555995
0.0398159
0.0389707
0.0475831
0.0409244
0.0366035
0.0287164
0.0283565
0.0282254
0.0282606
0.0334425
0.0330818
0.0277017
0.0273502
0.0269767
0.026593
0.025963
0.0252872
0.0272051
0.0263419
0.0330743
0.0251682
0.032224
0.0241086
0.0234615
0.0232361
0.0234115
0.0237555
0.0241301
0.0315815
0.0243998
0.024617
0.0250955
0.0256428
0.0262905
0.0267647
0.0271097
0.0279098
0.034909
0.0282481
0.0281264
0.0270751
0.0261798
0.025126
0.024068
0.0228639
0.0213978
0.0199384
0.0180822
0.0165339
0.0152529
0.0139004
0.01272
0.0117236
0.0108733
0.0102554
0.00973487
0.0089904
0.00837715
0.0279284
0.023043
0.0227676
0.0217169
0.0210298
0.0239123
0.0244967
0.022671
0.0229433
0.0283994
0.0312476
0.0489173
0.0346932
0.0493717
0.0334398
0.0336558
0.0345016
0.0345587
0.034824
0.0348199
0.0350678
0.0533381
0.0352358
0.0360322
0.0362967
0.0365264
0.0367467
0.049285
0.03518
0.0475796
0.0350849
0.0351976
0.0469649
0.0361217
0.049582
0.037545
0.0384135
0.0388458
0.0397052
0.0393191
0.0392348
0.0388796
0.0398843
0.0471221
0.0389957
0.0303148
0.0313529
0.0304708
0.0301666
0.0300747
0.0369357
0.0365003
0.0360654
0.0265357
0.0357859
0.025729
0.0280463
0.0350375
0.0264809
0.0256392
0.0247853
0.0239038
0.0234163
0.023239
0.0226804
0.0221548
0.0219718
0.02221
0.0225936
0.0230182
0.0233261
0.0235237
0.0237248
0.0242123
0.0247939
0.0255221
0.0330213
0.0263089
0.0266947
0.026951
0.0270667
0.0269744
0.0333165
0.0254052
0.0243667
0.0233383
0.0221832
0.0207327
0.0193126
0.0175058
0.0160223
0.0148328
0.013525
0.0123827
0.0114577
0.010631
0.0100279
0.00952226
0.00881111
0.00822828
0.0281122
0.0261211
0.024765
0.0255583
0.0273626
0.0292833
0.0302398
0.0286258
0.0249802
0.0259938
0.0340865
0.033462
0.035995
0.036697
0.0361985
0.037389
0.0374136
0.049885
0.035805
0.0347493
0.0340703
0.0333278
0.0335069
0.0343995
0.0352385
0.0504033
0.0354657
0.0345528
0.0336302
0.0334471
0.0335845
0.0343075
0.0348158
0.0353924
0.0363329
0.036968
0.0378039
0.051818
0.0385162
0.0387293
0.0395869
0.0392136
0.0465794
0.0386316
0.0301349
0.0303383
0.0354849
0.0284464
0.0282246
0.0282701
0.0284191
0.028192
0.0280242
0.0279326
0.0274413
0.0268178
0.0262209
0.025581
0.0249042
0.0238159
0.0229805
0.0223654
0.0219297
0.021709
0.0290959
0.0207885
0.0207177
0.0210186
0.0214285
0.021884
0.0222435
0.0224699
0.0227596
0.0233335
0.0239246
0.0246723
0.0251554
0.0254923
0.025858
0.0260834
0.0262635
0.0262015
0.0254962
0.0245824
0.0236105
0.0225317
0.0214525
0.0282056
0.018666
0.0169368
0.0155298
0.0143557
0.0131323
0.012052
0.0111487
0.010383
0.00979449
0.00930722
0.00862512
0.00807242
0.0280869
0.0269216
0.0253257
0.025551
0.0263816
0.0258826
0.0268034
0.0294746
0.0280212
0.0252145
0.0283116
0.0329696
0.0351376
0.0547907
0.037128
0.0494865
0.0490745
0.0361053
0.050896
0.0338793
0.052838
0.0318631
0.0319331
0.0329373
0.0534808
0.0535128
0.0345917
0.0472746
0.0330065
0.0326899
0.0332869
0.034677
0.0431327
0.035536
0.0363847
0.0376556
0.0485336
0.0379399
0.0380958
0.0498307
0.0393204
0.0455992
0.0377395
0.0313751
0.0291114
0.0279379
0.0265841
0.0259608
0.0258647
0.0260221
0.0337707
0.0261476
0.0260198
0.033579
0.0333294
0.0249813
0.0241458
0.0235415
0.0305838
0.0222432
0.0214166
0.0208163
0.0203969
0.0201678
0.0198381
0.019451
0.0194433
0.0197966
0.0202662
0.020813
0.0290271
0.0214814
0.0218007
0.0223725
0.0230431
0.0237776
0.0242477
0.0246646
0.0250361
0.025237
0.0327373
0.0327344
0.0246356
0.0237505
0.0228388
0.0217524
0.0206894
0.0193989
0.0179789
0.0163664
0.0150389
0.0138918
0.0127393
0.0117154
0.0108472
0.0101263
0.00955741
0.00906488
0.00843194
0.00790702
0.0279444
0.0265738
0.0248035
0.0237228
0.0224972
0.0202772
0.0203973
0.0243202
0.0274673
0.02511
0.0247962
0.0238433
0.0328115
0.0346259
0.0355801
0.0363231
0.0356039
0.0339607
0.0330682
0.0316524
0.0302712
0.02945
0.0456455
0.0310891
0.0324956
0.0472112
0.0351951
0.0409642
0.0338234
0.0322812
0.0305991
0.031108
0.0322145
0.0339577
0.0362428
0.0378834
0.0386279
0.0387563
0.0388538
0.0389052
0.0388775
0.0328273
0.0307057
0.0283721
0.026218
0.0320289
0.0241867
0.0237018
0.0237523
0.0240362
0.031655
0.0237717
0.023697
0.023733
0.0233831
0.0228606
0.0223323
0.0217558
0.0212689
0.0283217
0.0198028
0.0192584
0.0188838
0.0186904
0.0183957
0.018195
0.0182541
0.0186584
0.0191624
0.0196783
0.0201428
0.02045
0.0208516
0.0214577
0.0221027
0.0228701
0.0233655
0.0237882
0.0241608
0.0243674
0.0245933
0.0320285
0.0237715
0.022932
0.0220305
0.0209962
0.019931
0.0186757
0.0173401
0.0158044
0.0145421
0.0134397
0.0123381
0.0113769
0.0105492
0.0098655
0.00931864
0.00882472
0.00823487
0.00773485
0.0276754
0.0255651
0.0230792
0.0208504
0.0180811
0.0148224
0.0144205
0.0182847
0.0234797
0.0244115
0.0222108
0.0244901
0.0278173
0.03114
0.0324539
0.0328946
0.0513506
0.0480051
0.030129
0.0434475
0.0270929
0.0268295
0.0277933
0.0292717
0.0307331
0.0339646
0.0357773
0.030678
0.033718
0.0264187
0.0253968
0.0273056
0.0338351
0.0300366
0.0332374
0.0362345
0.0376972
0.0435525
0.0362607
0.0416826
0.0318462
0.0294918
0.0273234
0.032127
0.0234866
0.0223232
0.0291305
0.0212995
0.0290859
0.0219245
0.0294585
0.0216268
0.0216211
0.0216843
0.0290994
0.0209646
0.0204469
0.0199026
0.0193844
0.0188429
0.0182183
0.017756
0.0174475
0.0257839
0.0170408
0.0169647
0.0170803
0.0175125
0.018066
0.0186215
0.0191181
0.0194746
0.0198818
0.0205116
0.0212099
0.0219146
0.0224429
0.0229251
0.0232787
0.0234686
0.0236557
0.023648
0.0304945
0.02204
0.021238
0.0201811
0.0191891
0.0179521
0.0167122
0.0152695
0.0140466
0.0130026
0.0119494
0.0110429
0.0102512
0.00960328
0.00907504
0.00859118
0.00803475
0.00755814
0.0272012
0.0238171
0.0199762
0.0167355
0.0131442
0.00992793
0.00997756
0.0137052
0.019206
0.0222652
0.0208813
0.0204995
0.0236786
0.0272762
0.0286348
0.0412626
0.0277678
0.0264902
0.0405975
0.0251581
0.0240283
0.023547
0.0243667
0.0301558
0.0261734
0.0244234
0.0239203
0.0267467
0.0322156
0.0240954
0.0222875
0.0229989
0.0248651
0.0273827
0.031047
0.0373634
0.0345526
0.0344714
0.0331181
0.0366074
0.0283687
0.0319857
0.0238358
0.0293136
0.028167
0.0193299
0.0189014
0.0188626
0.0191538
0.027663
0.0194716
0.0193596
0.0194505
0.0195607
0.0193839
0.018992
0.0185324
0.0180638
0.0175973
0.0171492
0.0167319
0.0163511
0.0160587
0.0159973
0.0157767
0.0157664
0.0159635
0.0164394
0.0170149
0.0175893
0.0180906
0.0184968
0.0189715
0.0195851
0.0202635
0.0210089
0.0215166
0.0219787
0.022363
0.0225699
0.0227405
0.022696
0.0219832
0.0211818
0.020436
0.0194018
0.0184331
0.0172719
0.0160718
0.0147254
0.0135671
0.012556
0.0115586
0.0107066
0.00995266
0.00934059
0.00882896
0.00835911
0.00783675
0.00737697
0.02633
0.0210466
0.0155751
0.0118587
0.00860991
0.00638154
0.00711043
0.0107261
0.0159152
0.0196997
0.0196536
0.0182153
0.0194458
0.0216106
0.0241519
0.0260203
0.0246256
0.0235529
0.0221617
0.0197179
0.0190737
0.0190875
0.0191593
0.0188986
0.0181881
0.0181593
0.0191382
0.0243684
0.0310333
0.0212439
0.0273162
0.018509
0.0206728
0.0243319
0.0283211
0.0347702
0.0317429
0.0370403
0.0294525
0.0268924
0.0245881
0.0223384
0.0202057
0.0186821
0.0174353
0.0164842
0.016239
0.0252986
0.0168151
0.0173385
0.0171227
0.0171677
0.017329
0.0174869
0.0173534
0.0170897
0.0167222
0.0163396
0.0246009
0.0155839
0.0153249
0.0239077
0.0147347
0.0146607
0.0145449
0.014613
0.0148749
0.0153716
0.0159842
0.0166153
0.0171431
0.0175353
0.0180368
0.0186968
0.0193581
0.020046
0.0206163
0.0210768
0.0214237
0.0216133
0.0217479
0.0216573
0.0210596
0.0203143
0.0195653
0.0186443
0.0176823
0.0165998
0.015431
0.0141812
0.0130986
0.0121206
0.0111817
0.0103715
0.00965705
0.00907433
0.00858595
0.0081259
0.00763718
0.007194
0.0246666
0.0166181
0.0104392
0.00727748
0.00513989
0.00421219
0.00524089
0.00869501
0.0135009
0.0173498
0.0181825
0.0168596
0.0165972
0.017739
0.0187752
0.0185992
0.018137
0.0178703
0.0179003
0.0177229
0.017763
0.0178539
0.0177033
0.0173949
0.016913
0.0169946
0.0258348
0.0178876
0.0276905
0.0256757
0.0151195
0.0156261
0.0170117
0.0208675
0.0250192
0.027203
0.0282553
0.0337149
0.0253982
0.0231829
0.0207826
0.0183081
0.0166603
0.0153848
0.0237978
0.0138424
0.0137583
0.0143006
0.0145954
0.0150518
0.0149552
0.0151093
0.0153327
0.0155308
0.0154665
0.0153043
0.0150279
0.0147245
0.0144602
0.0141074
0.0139557
0.0138077
0.0134876
0.0134126
0.0133766
0.0135148
0.0138408
0.0143652
0.0149754
0.0155967
0.0162396
0.0166274
0.0171492
0.0177871
0.0184765
0.0191456
0.019685
0.0201463
0.0205134
0.0207072
0.0208088
0.0206868
0.0201502
0.0194381
0.0187605
0.0178637
0.016973
0.0158887
0.0148122
0.0136521
0.0126293
0.0116878
0.0108079
0.0100344
0.00936392
0.00880932
0.00834058
0.00789761
0.00743523
0.00701269
0.0216218
0.0108899
0.00580374
0.00404191
0.00319855
0.00294814
0.00395579
0.00705545
0.0115294
0.0153133
0.0166127
0.0157415
0.0148652
0.0149831
0.0154296
0.015393
0.0152991
0.0153872
0.0156161
0.0157459
0.0160096
0.0162822
0.0160372
0.0155279
0.0148786
0.0141609
0.0135763
0.0230271
0.0142478
0.0139973
0.0139409
0.0153885
0.0152647
0.0173493
0.0211082
0.0233159
0.0242756
0.0230154
0.0211903
0.0188082
0.0160411
0.0144737
0.0133068
0.0122981
0.0116858
0.0112746
0.0113901
0.0120316
0.0124557
0.0129604
0.0129253
0.0131584
0.0134382
0.0136847
0.0136949
0.0136081
0.0134041
0.0131774
0.0129534
0.0127121
0.0126594
0.0125027
0.0122586
0.0122236
0.0122627
0.0124674
0.0128299
0.0133826
0.0140061
0.0146448
0.0243969
0.0157226
0.0162844
0.0169326
0.0175835
0.0182546
0.0188175
0.0192355
0.019567
0.019744
0.0198353
0.0196757
0.0191961
0.0186156
0.0179369
0.0171183
0.0162635
0.0152156
0.0141943
0.0131371
0.0121678
0.0112684
0.010439
0.0097028
0.00906952
0.00854732
0.00809598
0.00766839
0.00722491
0.00682843
0.0145676
0.00549193
0.00302012
0.00240561
0.00213712
0.0021398
0.0029612
0.00557471
0.00970256
0.0133765
0.0150348
0.0146419
0.0136886
0.0132171
0.0131601
0.0130661
0.0130833
0.0132758
0.0135563
0.0137893
0.01406
0.0144857
0.0160148
0.0135184
0.0183638
0.0121802
0.0119274
0.0120361
0.0203452
0.0123383
0.0126262
0.0130176
0.0149121
0.0144905
0.0169581
0.018926
0.0198284
0.0179934
0.0161453
0.0139644
0.0227305
0.01115
0.0101381
0.00922584
0.00875573
0.0087011
0.00904866
0.00980791
0.0103618
0.0108455
0.0109672
0.0112923
0.0116439
0.0119338
0.012016
0.0215466
0.0118618
0.0116777
0.0115193
0.0113882
0.0113505
0.011254
0.0111026
0.0111059
0.0112116
0.011479
0.0118822
0.0124468
0.0130589
0.0137173
0.0143884
0.0148603
0.0154174
0.0160786
0.0167418
0.0173683
0.0179206
0.0183612
0.018686
0.018843
0.0189031
0.0187436
0.0183024
0.0177548
0.0171517
0.0163901
0.0155413
0.0145632
0.0135965
0.0126237
0.0117127
0.0108551
0.010072
0.00937504
0.00878187
0.00828333
0.0078542
0.00743818
0.00701795
0.00664294
0.0095368
0.00282299
0.00170643
0.00152075
0.00148686
0.00158163
0.00218585
0.00422057
0.00787761
0.0115409
0.0135144
0.0135224
0.0126988
0.0120206
0.0116639
0.0114711
0.0114573
0.0115989
0.0117919
0.0119182
0.0119774
0.0120177
0.0115577
0.0111605
0.010775