/*--------------------------------*- C++ -*----------------------------------*\
  =========                 |
  \\      /  F ield         | OpenFOAM: The Open Source CFD Toolbox
   \\    /   O peration     | Website:  https://openfoam.org
    \\  /    A nd           | Version:  6
     \\/     M anipulation  |
\*---------------------------------------------------------------------------*/
FoamFile
{
    version     2.0;
    format      ascii;
    class       volScalarField;
    location    "0.1";
    object      CO2;
}
// * * * * * * * * * * * * * * * * * * * * * * * * * * * * * * * * * * * * * //

dimensions      [0 0 0 0 0 0 0];

internalField   nonuniform List<scalar> 
8000
(
0.000144295
0.00418159
0.0239381
0.062263
0.0849297
0.0613412
0.0364264
0.0166243
0.00568612
0.00138499
0.000378717
0.000264371
0.000580847
0.00597918
0.00519852
0.00530562
0.0473902
0.118549
0.0691479
0.0383247
0.0443264
0.0697535
0.104375
0.126085
0.134183
0.130646
0.128331
0.129839
0.129987
0.0550346
0.115493
0.135247
0.129537
0.12224
0.113606
0.105693
0.101053
0.102392
0.111217
0.119272
0.117366
0.118353
0.124523
0.133283
0.140899
0.144992
0.144651
0.140454
0.132367
0.0648521
0.113729
0.120261
0.121757
0.121638
0.121465
0.12127
0.121275
0.121706
0.12263
0.123938
0.128603
0.130643
0.137187
0.141605
0.146195
0.154389
0.150223
0.153733
0.153817
0.153846
0.147622
0.153947
0.153944
0.149347
0.149324
0.153884
0.153883
0.153878
0.153843
0.153838
0.153901
0.153925
0.153976
0.149414
0.149231
0.148712
0.148236
0.147289
0.1372
0.144814
0.142995
0.140834
0.139026
0.137724
0.133549
0.131089
0.129387
0.128078
0.128156
0.123235
0.000138865
0.00485137
0.0272278
0.0656441
0.087536
0.062033
0.0351794
0.0160802
0.00521562
0.00117469
0.000334844
0.00029934
0.00101718
0.0221209
0.0180991
0.00843928
0.0179881
0.0379667
0.0443119
0.0461498
0.0509636
0.0741255
0.106669
0.126563
0.133961
0.129254
0.128156
0.129816
0.131371
0.126653
0.137408
0.135631
0.130246
0.123849
0.116671
0.109834
0.105351
0.106068
0.114471
0.114756
0.121897
0.120776
0.126173
0.134385
0.141443
0.144989
0.144448
0.140373
0.1327
0.129109
0.123405
0.122235
0.12165
0.121546
0.12144
0.121339
0.121444
0.121948
0.122897
0.12417
0.128809
0.130855
0.137472
0.141319
0.149708
0.154432
0.150249
0.15374
0.153818
0.153848
0.153884
0.153944
0.153939
0.149337
0.149316
0.153882
0.153881
0.153877
0.153844
0.153837
0.153901
0.153923
0.153975
0.149406
0.149224
0.148697
0.148216
0.147269
0.146336
0.144784
0.142968
0.140802
0.138996
0.137709
0.133508
0.131056
0.129354
0.128043
0.128154
0.123196
0.000169171
0.0085725
0.0523859
0.11067
0.0643753
0.0468624
0.0259095
0.0344474
0.0202176
0.00123542
0.00488551
0.000329074
0.0016709
0.0589594
0.0543145
0.0211571
0.0111422
0.0166446
0.074944
0.117535
0.0768625
0.0848622
0.111533
0.127573
0.133594
0.125232
0.126577
0.129762
0.13343
0.136399
0.138739
0.137009
0.131995
0.126976
0.122656
0.118435
0.114019
0.113376
0.116516
0.120631
0.120458
0.123065
0.129028
0.136533
0.142454
0.144908
0.143962
0.139369
0.132804
0.12923
0.127442
0.121787
0.121252
0.121367
0.121462
0.121548
0.121813
0.122435
0.123421
0.125949
0.129234
0.131321
0.138091
0.142612
0.149671
0.154522
0.153678
0.153755
0.153822
0.153849
0.153892
0.153936
0.141667
0.149315
0.149299
0.144248
0.153874
0.153875
0.153846
0.148373
0.153902
0.153919
0.153971
0.149387
0.139943
0.148664
0.148174
0.147225
0.146188
0.144724
0.14291
0.140731
0.1229
0.120681
0.133416
0.130984
0.12928
0.127967
0.105119
0.123108
0.000273572
0.0156339
0.0499365
0.061785
0.0473796
0.0317573
0.0163558
0.00693112
0.00187534
0.000397616
0.00016322
0.000191811
0.000801003
0.0551959
0.120048
0.0324182
0.00816135
0.0101814
0.0483711
0.0653862
0.0652336
0.0882799
0.116107
0.130979
0.133251
0.114366
0.123528
0.129739
0.13454
0.138575
0.140088
0.138457
0.133965
0.130263
0.129284
0.115804
0.124825
0.112701
0.122644
0.123392
0.124318
0.127977
0.13328
0.139378
0.14404
0.144935
0.142464
0.138057
0.13251
0.130205
0.12719
0.121365
0.111683
0.121322
0.121694
0.121966
0.122359
0.123081
0.124121
0.128488
0.129825
0.135094
0.139022
0.144177
0.149619
0.154635
0.153732
0.153775
0.153824
0.153852
0.144909
0.14932
0.149322
0.149277
0.149271
0.153858
0.153863
0.153869
0.153846
0.153849
0.153901
0.153913
0.153965
0.149359
0.149148
0.148611
0.148109
0.147158
0.146051
0.144634
0.142822
0.140625
0.138711
0.137115
0.133275
0.130874
0.129168
0.127852
0.127298
0.122972
0.000226212
0.0354603
0.115546
0.0740059
0.0406187
0.0219411
0.0090426
0.00265023
0.00059591
0.000163365
0.00256588
0.00235133
0.00261755
0.02423
0.0346082
0.0126292
0.00518661
0.00808811
0.0279732
0.0439091
0.0634545
0.0958359
0.121764
0.131835
0.132006
0.125286
0.126795
0.130613
0.135546
0.138855
0.140561
0.139408
0.135684
0.132533
0.130712
0.128889
0.126242
0.125921
0.127714
0.10984
0.131324
0.134706
0.138277
0.142705
0.144683
0.144201
0.141392
0.137076
0.132062
0.128665
0.127189
0.121855
0.119882
0.12192
0.122257
0.122598
0.123019
0.123818
0.126313
0.129257
0.130569
0.136157
0.140248
0.147215
0.151676
0.150165
0.153777
0.153795
0.148238
0.153848
0.153871
0.149268
0.149254
0.149223
0.149232
0.153843
0.153845
0.153861
0.153849
0.153858
0.153899
0.145883
0.153955
0.140167
0.149083
0.148541
0.148022
0.147069
0.145903
0.144517
0.142704
0.140484
0.138474
0.136642
0.133093
0.130728
0.129018
0.1277
0.126608
0.122798
0.000149601
0.0313902
0.0969665
0.0561492
0.0265698
0.0127812
0.00400731
0.0112134
0.000247747
0.00010921
9.37646e-05
0.000126131
0.000247841
0.0087519
0.0113853
0.0094383
0.0130013
0.0120188
0.0200086
0.0407963
0.071898
0.107835
0.116232
0.126973
0.131373
0.127045
0.12835
0.130675
0.134434
0.138662
0.140417
0.139871
0.138235
0.134563
0.132329
0.130154
0.128697
0.129276
0.131877
0.135907
0.13751
0.141049
0.127295
0.144413
0.145074
0.142461
0.138103
0.135721
0.131891
0.112663
0.127526
0.122574
0.111369
0.122613
0.123005
0.123373
0.123775
0.124733
0.129066
0.130178
0.131495
0.137497
0.141753
0.147623
0.151773
0.15031
0.153805
0.153815
0.153817
0.153829
0.15384
0.149192
0.149167
0.149152
0.14918
0.153821
0.153826
0.153848
0.153849
0.153862
0.153892
0.145284
0.149348
0.149266
0.149013
0.148453
0.147912
0.146956
0.145748
0.144373
0.142558
0.140311
0.138218
0.118404
0.132876
0.130544
0.128832
0.127511
0.126041
0.122592
9.40207e-05
0.0187987
0.0535898
0.0452657
0.0129465
0.00579723
0.0142053
0.00910095
0.00340669
0.00011679
0.000116337
0.000195212
0.00339759
0.00318879
0.0044112
0.003997
0.00690289
0.0130388
0.0253834
0.0485998
0.088798
0.118988
0.132088
0.133935
0.131462
0.115617
0.115853
0.130593
0.117438
0.136944
0.139691
0.140577
0.139061
0.137681
0.136288
0.134807
0.132602
0.134623
0.13675
0.139338
0.126711
0.142502
0.14407
0.145294
0.144738
0.141544
0.115015
0.134229
0.13226
0.130765
0.128488
0.126408
0.111581
0.123504
0.123909
0.124335
0.124734
0.112327
0.130035
0.13125
0.132713
0.139102
0.142377
0.146612
0.151362
0.153801
0.153819
0.153805
0.1538
0.153795
0.153807
0.149092
0.149059
0.149059
0.149112
0.149153
0.153802
0.153827
0.153842
0.145656
0.153881
0.153893
0.149296
0.149194
0.148934
0.148346
0.147778
0.138006
0.145578
0.144212
0.142384
0.140107
0.13794
0.135775
0.132623
0.130325
0.12861
0.127288
0.125547
0.122356
0.00136021
0.0110509
0.0322052
0.0124649
0.00456885
0.00165617
0.00896295
0.000393929
0.000148425
0.000135089
0.00229201
0.00369879
0.00173356
0.00705586
0.00342048
0.00485239
0.0100687
0.019696
0.0346848
0.0602738
0.0979673
0.11549
0.133156
0.125498
0.129177
0.127203
0.128642
0.130528
0.132809
0.136384
0.119955
0.13969
0.139814
0.139553
0.139388
0.123422
0.137575
0.138064
0.13998
0.141244
0.142538
0.143386
0.144522
0.145182
0.144325
0.141531
0.137648
0.135993
0.132953
0.131797
0.129535
0.128632
0.111948
0.125959
0.126301
0.126648
0.127007
0.129733
0.131145
0.135537
0.137434
0.132367
0.142031
0.149921
0.154864
0.153859
0.153806
0.153762
0.153765
0.142088
0.140159
0.148959
0.148926
0.148953
0.139584
0.149069
0.149146
0.153795
0.153827
0.144963
0.153863
0.15387
0.149226
0.149107
0.138932
0.148221
0.147619
0.146622
0.145388
0.144022
0.142186
0.139874
0.137638
0.135315
0.132338
0.130071
0.128352
0.12703
0.125099
0.122092
4.52683e-05
0.00212871
0.0152495
0.0132066
0.0011536
0.000397244
0.000283259
0.000159382
0.000147459
0.000225919
0.00329382
0.00624553
0.0158331
0.00926433
0.0123825
0.0125738
0.0214187
0.0319349
0.0446265
0.0761529
0.107746
0.128026
0.134609
0.134654
0.116237
0.114824
0.128683
0.129858
0.11618
0.134889
0.136868
0.137529
0.137625
0.138004
0.138719
0.139801
0.121787
0.140239
0.14086
0.123087
0.143012
0.144178
0.144755
0.144642
0.143794
0.141523
0.138284
0.136418
0.133607
0.132697
0.131892
0.12983
0.129278
0.128993
0.11254
0.129488
0.129713
0.130823
0.132413
0.137257
0.130171
0.13683
0.148057
0.150983
0.150497
0.153854
0.153751
0.153692
0.143818
0.153651
0.148945
0.148791
0.148774
0.148831
0.148901
0.148964
0.149066
0.153759
0.143866
0.153818
0.142796
0.141567
0.149144
0.149003
0.138743
0.148071
0.147436
0.146402
0.145178
0.143792
0.141962
0.139615
0.137267
0.134853
0.132025
0.129783
0.128059
0.126735
0.124682
0.121802
1.90452e-05
0.000446252
0.00152876
0.00721722
0.000276158
0.000142922
0.00247424
0.000142784
0.00214547
0.0042492
0.00126106
0.0100833
0.0351846
0.0553621
0.0201763
0.0193506
0.027432
0.0473637
0.0757256
0.0968324
0.1147
0.130832
0.135672
0.13548
0.131263
0.11549
0.129082
0.130092
0.131549
0.133569
0.134318
0.134554
0.131136
0.115426
0.116987
0.136391
0.137799
0.139053
0.139794
0.140887
0.142896
0.143777
0.144084
0.143764
0.142365
0.140678
0.138462
0.136725
0.134117
0.133493
0.132945
0.132553
0.130578
0.13012
0.130325
0.130528
0.113189
0.116943
0.136986
0.139295
0.141765
0.145448
0.150498
0.154976
0.15083
0.148124
0.153664
0.153559
0.141092
0.14883
0.14871
0.148586
0.148607
0.148682
0.148762
0.148835
0.139269
0.140522
0.153759
0.153773
0.153797
0.149198
0.14905
0.148877
0.148539
0.148148
0.147229
0.146161
0.144948
0.143536
0.141709
0.139322
0.136877
0.134397
0.13168
0.129462
0.127732
0.126408
0.124281
0.121484
4.52494e-06
0.00176065
0.00390189
0.00332507
0.000131479
0.000119019
0.000152113
0.00215632
0.00307184
0.00491524
0.00912701
0.0186075
0.0897429
0.100336
0.0448184
0.0327304
0.03704
0.0595447
0.0902113
0.112238
0.126202
0.132942
0.136144
0.136012
0.133263
0.128866
0.129343
0.13027
0.130891
0.131985
0.132511
0.132123
0.130845
0.131408
0.1323
0.115367
0.133327
0.115726
0.136388
0.117556
0.141034
0.142082
0.142328
0.141951
0.140863
0.139748
0.138589
0.137105
0.114326
0.134232
0.134019
0.133806
0.133697
0.131234
0.113459
0.131697
0.118176
0.13669
0.139035
0.141574
0.143222
0.145264
0.152281
0.150603
0.153862
0.15366
0.153519
0.153383
0.148695
0.138611
0.148439
0.148369
0.148412
0.148505
0.148601
0.1487
0.148831
0.148991
0.153711
0.140682
0.149132
0.149092
0.148934
0.148728
0.148338
0.147944
0.146996
0.1459
0.144684
0.131262
0.141426
0.138999
0.136459
0.133937
0.131302
0.129105
0.127373
0.126047
0.123798
0.121138
0.000245521
0.00162908
0.00244118
0.00265195
0.000207024
0.00253874
0.000472938
0.00415598
0.0057975
0.00731042
0.011576
0.0152953
0.0656464
0.117132
0.0635455
0.0412222
0.0438113
0.067193
0.108712
0.113063
0.130333
0.136043
0.128564
0.136159
0.133947
0.115846
0.115082
0.1304
0.129478
0.115287
0.130106
0.130429
0.130586
0.131121
0.131775
0.130183
0.131754
0.131064
0.115863
0.136064
0.13838
0.140088
0.140434
0.139452
0.138682
0.138893
0.138731
0.137832
0.136681
0.135097
0.114393
0.114336
0.114274
0.134971
0.13543
0.136044
0.137025
0.138875
0.141332
0.142951
0.148409
0.150089
0.154938
0.153798
0.153526
0.153304
0.139986
0.138329
0.148325
0.148241
0.148128
0.148119
0.148183
0.148299
0.148415
0.148543
0.148668
0.148845
0.149021
0.149017
0.14902
0.148966
0.148797
0.148556
0.14811
0.147714
0.146738
0.145608
0.144394
0.142865
0.141098
0.122853
0.136008
0.133469
0.130892
0.128714
0.126982
0.12566
0.123306
0.120765
0.000265075
6.09854e-05
0.000113763
0.000312328
0.000935376
0.00451835
0.0025916
0.00802663
0.00742078
0.0117026
0.0147475
0.0246968
0.0666909
0.101728
0.0657549
0.0451974
0.050283
0.0748827
0.110543
0.126878
0.132983
0.13652
0.124291
0.136309
0.134525
0.117208
0.130665
0.131179
0.114512
0.12865
0.114638
0.128117
0.127141
0.127637
0.129569
0.130063
0.12931
0.129716
0.132624
0.13431
0.115703
0.116542
0.137965
0.137696
0.115458
0.138848
0.139098
0.115774
0.138895
0.136451
0.116176
0.136887
0.136967
0.136855
0.121593
0.12552
0.139262
0.13188
0.142239
0.146664
0.150741
0.151029
0.149482
0.153461
0.14429
0.152835
0.138152
0.148016
0.147908
0.147844
0.147814
0.147835
0.147921
0.148063
0.148204
0.148357
0.148501
0.14867
0.139383
0.148874
0.148881
0.139232
0.148635
0.148358
0.147861
0.147453
0.146448
0.145283
0.144082
0.142412
0.126671
0.138185
0.135527
0.132984
0.130459
0.128292
0.126559
0.12517
0.122807
0.120365
0.000198202
0.00132372
0.000350646
0.00605452
0.0182383
0.0109566
0.0131382
0.0227273
0.0326164
0.0766653
0.036101
0.0751996
0.0698873
0.122501
0.085514
0.0505153
0.061548
0.0909419
0.114711
0.115759
0.136611
0.129677
0.135067
0.136041
0.13551
0.134276
0.133218
0.132675
0.131781
0.130825
0.130389
0.128707
0.127385
0.114364
0.128329
0.12881
0.129028
0.129316
0.114722
0.134052
0.134974
0.136598
0.137148
0.136591
0.115209
0.13929
0.140137
0.140677
0.140845
0.140255
0.140924
0.141023
0.14095
0.126313
0.126758
0.140473
0.141714
0.137462
0.146327
0.150436
0.15488
0.154757
0.148982
0.152999
0.152571
0.147746
0.147563
0.147459
0.147464
0.147448
0.147463
0.147508
0.147618
0.14779
0.147966
0.148145
0.148306
0.148469
0.14872
0.148704
0.148716
0.148654
0.148446
0.138097
0.147829
0.138766
0.137085
0.144936
0.143736
0.141938
0.140182
0.137679
0.13502
0.132465
0.130001
0.127839
0.126101
0.124665
0.122297
0.119937
0.0047423
0.00216407
0.00261057
0.0230304
0.114985
0.0559222
0.0419628
0.0520203
0.0844022
0.0633845
0.0867585
0.083996
0.0724571
0.117787
0.0993582
0.0597563
0.0767565
0.107192
0.122664
0.118586
0.137862
0.138438
0.125403
0.138296
0.136574
0.136089
0.117077
0.134692
0.134629
0.133144
0.131704
0.131715
0.114884
0.129981
0.114532
0.128884
0.128957
0.113867
0.114497
0.134115
0.134943
0.135545
0.136152
0.136572
0.138526
0.140747
0.141799
0.142371
0.142157
0.127492
0.140937
0.142184
0.141987
0.141631
0.141723
0.137247
0.143166
0.145595
0.150139
0.150701
0.150285
0.153236
0.152836
0.152429
0.147526
0.147019
0.146812
0.146821
0.136408
0.147011
0.147312
0.147384
0.147521
0.147483
0.147694
0.147901
0.148084
0.148254
0.138525
0.1485
0.148522
0.148464
0.148231
0.147878
0.147518
0.146818
0.145772
0.144568
0.143355
0.141432
0.124803
0.137138
0.13449
0.131929
0.129511
0.127352
0.125612
0.124146
0.121774
0.119486
0.0497182
0.0206732
0.0183704
0.07601
0.127054
0.0881481
0.0822367
0.106624
0.102953
0.0909041
0.0902931
0.107421
0.088315
0.0882406
0.0761954
0.087478
0.0922845
0.11117
0.127488
0.136232
0.133617
0.13295
0.140545
0.125844
0.121853
0.118052
0.118153
0.138014
0.138021
0.135968
0.115893
0.11557
0.134576
0.134755
0.133564
0.114235
0.114176
0.130471
0.132393
0.115105
0.134982
0.135332
0.11492
0.138036
0.11683
0.142511
0.123689
0.144097
0.142849
0.135016
0.141763
0.142579
0.143576
0.143592
0.144536
0.145377
0.148469
0.148184
0.150573
0.150209
0.147743
0.145096
0.151958
0.147259
0.146543
0.14605
0.145865
0.146
0.146517
0.146668
0.146791
0.146891
0.147061
0.147302
0.13901
0.147569
0.147783
0.137224
0.148172
0.138001
0.148265
0.1482
0.147936
0.147515
0.147102
0.137543
0.1453
0.144091
0.142876
0.1273
0.13879
0.136465
0.133804
0.131264
0.128895
0.126726
0.124996
0.123502
0.121133
0.118916
0.127433
0.0487268
0.0465627
0.0584071
0.0901203
0.0925044
0.116345
0.127469
0.120054
0.116888
0.120654
0.119697
0.121551
0.0989827
0.111049
0.0956582
0.109557
0.118665
0.119077
0.139223
0.142109
0.142484
0.142976
0.141725
0.122347
0.121541
0.121604
0.140093
0.121613
0.140136
0.139775
0.139134
0.139052
0.138181
0.137104
0.136363
0.136235
0.135999
0.115204
0.13509
0.115134
0.114477
0.11497
0.139448
0.142502
0.144364
0.143635
0.143547
0.144733
0.146876
0.151168
0.147962
0.148193
0.148136
0.152449
0.152855
0.150208
0.149033
0.153172
0.145877
0.142987
0.137997
0.146464
0.145969
0.145344
0.144845
0.144921
0.145196
0.145631
0.145944
0.146134
0.146271
0.146472
0.14675
0.147055
0.147123
0.147362
0.147539
0.147758
0.147852
0.147912
0.147844
0.147539
0.147277
0.146564
0.145767
0.144696
0.14346
0.142174
0.139974
0.137808
0.135547
0.132967
0.130459
0.12813
0.125947
0.124233
0.122709
0.12036
0.118215
0.138639
0.100655
0.0723346
0.0744251
0.0932506
0.115613
0.137437
0.140839
0.136351
0.134567
0.121749
0.127113
0.119633
0.123654
0.117836
0.118966
0.123894
0.133403
0.121724
0.142321
0.128873
0.144348
0.144157
0.143499
0.125587
0.14278
0.143299
0.143419
0.125448
0.143372
0.122082
0.120841
0.142204
0.140631
0.118126
0.141158
0.140128
0.138894
0.137507
0.115707
0.137798
0.138411
0.139605
0.117569
0.144259
0.143879
0.144288
0.149244
0.152581
0.153806
0.153891
0.150801
0.153905
0.150066
0.153612
0.149508
0.149096
0.14648
0.152124
0.151425
0.150623
0.145677
0.144921
0.14455
0.134574
0.143734
0.143758
0.144161
0.135121
0.135782
0.145426
0.145597
0.145833
0.146146
0.146468
0.14683
0.146866
0.147056
0.147285
0.147406
0.147485
0.147424
0.138643
0.146727
0.145971
0.145105
0.144035
0.142749
0.141363
0.124477
0.136795
0.134579
0.132088
0.129593
0.127308
0.125105
0.123404
0.121877
0.119547
0.117468
0.140869
0.123605
0.10502
0.0964198
0.113569
0.134144
0.14509
0.146644
0.147551
0.146379
0.142905
0.137364
0.130201
0.124309
0.123954
0.126977
0.133347
0.11785
0.141133
0.144119
0.145296
0.128164
0.127615
0.129469
0.128356
0.145137
0.145678
0.146037
0.146738
0.146383
0.127734
0.146421
0.145779
0.123421
0.144864
0.144282
0.121702
0.142166
0.141493
0.140618
0.140385
0.117374
0.142787
0.144531
0.133373
0.141451
0.145043
0.153669
0.153554
0.153535
0.153555
0.146864
0.146872
0.153122
0.15285
0.152561
0.152228
0.151546
0.150765
0.145912
0.144864
0.13193
0.14326
0.13327
0.142685
0.142422
0.142597
0.143108
0.143724
0.144278
0.134867
0.144878
0.145138
0.145483
0.14584
0.146239
0.146517
0.146719
0.146733
0.137421
0.146978
0.146921
0.146749
0.146111
0.145309
0.144393
0.143329
0.141964
0.140425
0.138033
0.135724
0.133583
0.131056
0.128677
0.126424
0.124212
0.122505
0.121004
0.118696
0.116673
0.141589
0.135082
0.119247
0.111122
0.118945
0.126836
0.134338
0.143549
0.149592
0.149121
0.150024
0.126305
0.137606
0.121877
0.1315
0.13403
0.137445
0.141553
0.143911
0.145784
0.147063
0.120967
0.14782
0.147305
0.147367
0.147332
0.147279
0.129815
0.148753
0.13172
0.148846
0.148815
0.132935
0.148
0.129883
0.146471
0.145234
0.144496
0.143294
0.143147
0.143386
0.144197
0.14459
0.133235
0.144723
0.152236
0.149086
0.148699
0.148436
0.148261
0.138965
0.139144
0.13938
0.152058
0.138284
0.151238
0.146631
0.134782
0.145059
0.144041
0.142957
0.142294
0.141645
0.141431
0.141191
0.141104
0.141419
0.142022
0.142686
0.143317
0.143797
0.14408
0.144376
0.144775
0.145151
0.145594
0.136936
0.146079
0.146324
0.146498
0.14661
0.146557
0.13722
0.145412
0.144589
0.143604
0.142529
0.141105
0.139388
0.136907
0.13461
0.132544
0.129986
0.12764
0.125489
0.123271
0.121551
0.120063
0.117809
0.115832
0.141754
0.139456
0.130695
0.1204
0.11964
0.121725
0.122623
0.129169
0.1433
0.151287
0.147679
0.149805
0.144407
0.139754
0.13846
0.138918
0.140607
0.127501
0.14526
0.147293
0.14869
0.149517
0.149668
0.149335
0.148984
0.127907
0.1492
0.150035
0.150608
0.150566
0.150571
0.150259
0.1499
0.149552
0.14891
0.148136
0.146911
0.12741
0.14555
0.145179
0.144531
0.145427
0.133506
0.144557
0.151441
0.1487
0.137568
0.147562
0.147135
0.146874
0.146634
0.146326
0.146233
0.146221
0.145852
0.14531
0.144635
0.1439
0.143107
0.142182
0.141144
0.140393
0.139907
0.139744
0.127802
0.139759
0.140109
0.140799
0.141558
0.142311
0.142869
0.143222
0.14358
0.143991
0.144413
0.144865
0.145162
0.145376
0.14561
0.145774
0.145921
0.145875
0.145348
0.144636
0.143796
0.142784
0.141584
0.126896
0.138314
0.135741
0.133437
0.131335
0.128842
0.126541
0.124355
0.122273
0.120549
0.11907
0.116873
0.114956
0.141669
0.14029
0.136918
0.130286
0.127628
0.127474
0.124218
0.121088
0.130086
0.145996
0.151952
0.15171
0.14881
0.119979
0.142095
0.130337
0.130833
0.145138
0.125764
0.148941
0.119544
0.150623
0.15087
0.150706
0.11941
0.11997
0.150426
0.132224
0.151333
0.15117
0.150697
0.150133
0.138775
0.149826
0.149409
0.148368
0.133255
0.147222
0.146717
0.130213
0.145499
0.134587
0.144895
0.148289
0.148228
0.147313
0.146688
0.146058
0.145627
0.145362
0.134777
0.144398
0.144284
0.132891
0.132492
0.14322
0.142587
0.141789
0.130499
0.14012
0.139262
0.138582
0.138194
0.138097
0.138113
0.138233
0.138676
0.139467
0.140314
0.14117
0.12965
0.142213
0.142666
0.143169
0.143607
0.144076
0.144361
0.144577
0.1448
0.144939
0.135789
0.135739
0.144483
0.14377
0.142915
0.141826
0.140577
0.139006
0.137067
0.134521
0.132219
0.130077
0.127656
0.125399
0.123223
0.121211
0.119504
0.117958
0.115873
0.114005
0.141446
0.13992
0.138012
0.134932
0.132458
0.129695
0.12451
0.118807
0.119551
0.134454
0.148659
0.16076
0.151432
0.148795
0.146433
0.145333
0.14645
0.148009
0.149436
0.150244
0.150852
0.151343
0.128514
0.151397
0.150959
0.131836
0.149758
0.141466
0.14991
0.150628
0.152584
0.152962
0.152224
0.151
0.149434
0.148327
0.147766
0.147009
0.146411
0.145919
0.144869
0.147811
0.148255
0.14797
0.146572
0.136206
0.14465
0.144108
0.143705
0.143422
0.13304
0.142439
0.142273
0.142166
0.141729
0.141094
0.140278
0.139526
0.138891
0.125504
0.137394
0.13672
0.136326
0.136263
0.136208
0.136441
0.136999
0.137887
0.138856
0.139833
0.140617
0.141128
0.141635
0.142205
0.142741
0.143208
0.143481
0.143729
0.143931
0.144041
0.14419
0.134394
0.143534
0.142789
0.141956
0.140747
0.13944
0.137767
0.135752
0.133247
0.130941
0.128786
0.12642
0.124216
0.122075
0.120105
0.118409
0.116837
0.114837
0.112983
0.141088
0.138956
0.136428
0.133969
0.130413
0.124963
0.118762
0.11387
0.112794
0.122127
0.139929
0.149659
0.152711
0.151138
0.150012
0.149031
0.120587
0.123835
0.150371
0.127608
0.150787
0.151056
0.151378
0.151126
0.150609
0.148288
0.147256
0.153094
0.150435
0.156818
0.157364
0.156097
0.150319
0.154651
0.1522
0.14961
0.148422
0.138854
0.148284
0.138036
0.147801
0.147594
0.147394
0.137162
0.144253
0.14301
0.130888
0.141978
0.129841
0.141378
0.129292
0.140245
0.140035
0.139869
0.127556
0.138782
0.138001
0.137279
0.136583
0.135913
0.135303
0.134632
0.134173
0.118098
0.13412
0.134468
0.135126
0.136162
0.137263
0.138344
0.139187
0.139864
0.140482
0.141161
0.141729
0.14226
0.142574
0.142804
0.143004
0.143095
0.143182
0.14312
0.131824
0.141773
0.140875
0.139619
0.138158
0.136416
0.134394
0.13189
0.12963
0.127462
0.125136
0.122983
0.120875
0.11896
0.117277
0.115686
0.113757
0.111927
0.140523
0.137364
0.13336
0.128959
0.122618
0.114145
0.107099
0.104618
0.105737
0.113012
0.128857
0.143369
0.14943
0.149364
0.150016
0.130628
0.149259
0.149127
0.130058
0.149608
0.149623
0.150842
0.151387
0.147106
0.152567
0.156601
0.1585
0.156241
0.150158
0.157723
0.159065
0.158717
0.157704
0.156289
0.153883
0.147427
0.150643
0.149649
0.14951
0.139371
0.147246
0.1382
0.14496
0.132142
0.129044
0.140206
0.139583
0.139332
0.139113
0.125537
0.138257
0.137862
0.137635
0.137445
0.13702
0.136365
0.135544
0.13477
0.134058
0.13335
0.132889
0.132313
0.131764
0.131813
0.131799
0.132282
0.133091
0.134235
0.135487
0.136719
0.137695
0.138437
0.139158
0.139958
0.140636
0.141172
0.141572
0.141848
0.142027
0.142074
0.142096
0.141969
0.141436
0.140623
0.139726
0.138345
0.136814
0.134959
0.132938
0.130489
0.128241
0.126101
0.123823
0.121721
0.119642
0.117768
0.11611
0.114505
0.112634
0.110839
0.139635
0.134385
0.126984
0.118663
0.109241
0.0986969
0.0921364
0.0926346
0.0975677
0.105922
0.119635
0.134985
0.144531
0.147669
0.14694
0.143886
0.14423
0.144639
0.147812
0.150086
0.151042
0.152098
0.153701
0.155964
0.158683
0.161105
0.161304
0.156664
0.14938
0.158547
0.149937
0.161577
0.160487
0.158005
0.155273
0.149076
0.151641
0.142977
0.14952
0.147629
0.145341
0.14334
0.141859
0.139831
0.138019
0.13653
0.135885
0.119276
0.13586
0.135884
0.13515
0.134895
0.134728
0.134558
0.134113
0.133519
0.13264
0.131825
0.113548
0.130481
0.130201
0.111085
0.12916
0.129158
0.129299
0.129933
0.130892
0.132187
0.133553
0.134959
0.136063
0.13688
0.137732
0.138606
0.139364
0.140024
0.140444
0.140741
0.140959
0.140995
0.140978
0.140778
0.1402
0.139382
0.138399
0.136954
0.135364
0.133454
0.131377
0.129042
0.126823
0.124684
0.122465
0.120399
0.118377
0.116543
0.114897
0.113286
0.111487
0.109713
0.1381
0.128986
0.114942
0.102653
0.0910592
0.0805264
0.0763558
0.0800558
0.0885951
0.0995306
0.112726
0.12708
0.138004
0.142907
0.144325
0.144286
0.144288
0.144722
0.145696
0.145949
0.146692
0.148137
0.149705
0.151504
0.153313
0.156
0.14688
0.158314
0.146855
0.147166
0.160418
0.161087
0.162237
0.159665
0.156542
0.154022
0.151865
0.143007
0.148148
0.145186
0.142129
0.140001
0.137775
0.135328
0.114615
0.13216
0.131601
0.132122
0.131987
0.132059
0.131489
0.131359
0.131254
0.131141
0.130737
0.130233
0.129319
0.128474
0.128037
0.127359
0.127268
0.127053
0.126314
0.126352
0.126668
0.127468
0.128562
0.129974
0.131465
0.132988
0.134353
0.135188
0.136143
0.13713
0.137954
0.138674
0.139204
0.139549
0.139755
0.139758
0.139704
0.139437
0.138895
0.138018
0.136923
0.135481
0.133797
0.13182
0.129758
0.127511
0.12537
0.123233
0.121086
0.119036
0.117072
0.115283
0.113653
0.112024
0.110319
0.108541
0.134873
0.116776
0.0949825
0.0801462
0.0696467
0.0621695
0.0612646
0.0677679
0.0792211
0.0928195
0.106862
0.120398
0.131149
0.136918
0.139322
0.139679
0.139959
0.140513
0.141323
0.141965
0.142891
0.144341
0.1451
0.146325
0.147094
0.148178
0.151542
0.139272
0.152994
0.153251
0.154537
0.155789
0.160299
0.160595
0.157036
0.153815
0.151061
0.148406
0.145231
0.142136
0.139138
0.135894
0.132837
0.13015
0.128542
0.127314
0.126935
0.127497
0.12761
0.127855
0.127395
0.127362
0.127337
0.127277
0.126964
0.126626
0.125666
0.124835
0.124452
0.123994
0.124122
0.12388
0.123295
0.123393
0.123889
0.124845
0.126105
0.127656
0.129254
0.130898
0.114017
0.133384
0.134439
0.135481
0.136413
0.137204
0.137772
0.138191
0.138432
0.138459
0.138357
0.138044
0.137396
0.136486
0.135397
0.13388
0.132174
0.130129
0.128099
0.125941
0.123862
0.121739
0.119661
0.117642
0.115744
0.113983
0.112354
0.11074
0.10904
0.107339
0.130474
0.0939362
0.0668026
0.0546649
0.0489508
0.0460097
0.0479143
0.0560509
0.0693352
0.0852434
0.100815
0.114108
0.124369
0.130384
0.133207
0.134175
0.134966
0.135976
0.137061
0.137877
0.138626
0.139984
0.13536
0.138867
0.129391
0.137635
0.139349
0.142371
0.131219
0.145774
0.148938
0.153589
0.155267
0.158902
0.156358
0.152517
0.148915
0.145614
0.141958
0.138549
0.113243
0.130886
0.127858
0.124874
0.123226
0.12238
0.122142
0.122671
0.122899
0.123232
0.122988
0.12304
0.123059
0.123064
0.122869
0.100387
0.121746
0.12097
0.120692
0.120441
0.120508
0.120451
0.120126
0.120332
0.121003
0.122126
0.123543
0.125224
0.126927
0.128716
0.130334
0.131446
0.132604
0.133728
0.134706
0.135586
0.136245
0.136684
0.136908
0.136943
0.136829
0.136437
0.135759
0.134869
0.133735
0.132192
0.130429
0.128383
0.12637
0.124331
0.122326
0.12022
0.118201
0.116209
0.11438
0.112644
0.111022
0.109434
0.107735
0.106106
0.104383
0.0577327
0.0374991
0.0324462
0.0322072
0.0333101
0.0368754
0.0451605
0.0589166
0.0761513
0.0934914
0.107123
0.117044
0.123
0.126201
0.127773
0.129161
0.130661
0.132
0.132753
0.132962
0.132503
0.130289
0.128487
0.127073
0.125646
0.127344
0.131238
0.134884
0.137951
0.142619
0.135192
0.151308
0.153869
0.153608
0.149612
0.128601
0.141135
0.136998
0.132926
0.128949
0.12558
0.0934807
0.119442
0.118011
0.11757
0.117466
0.117873
0.118152
0.118553
0.118393
0.118475
0.118537
0.118596
0.118508
0.118661
0.117575
0.116886
0.116757
0.11677
0.116782
0.117017
0.116844
0.11717
0.118022
0.119319
0.120879
0.122688
0.124509
0.126394
0.128051
0.129404
0.130633
0.131846
0.132898
0.133816
0.134533
0.13505
0.13529
0.135308
0.135153
0.134733
0.13403
0.133095
0.131973
0.130419
0.128602
0.126602
0.124607
0.122659
0.120757
0.118646
0.116714
0.114756
0.112989
0.111259
0.109673
0.108086
0.106414
0.104839
0.00746321
0.00967
0.0114323
0.0145412
0.0185172
0.022706
0.0275601
0.0345664
0.0460728
0.0614491
0.0784311
0.0923135
0.101815
0.107719
0.111494
0.114216
0.116858
0.119299
0.120864
0.120831
0.119094
0.115936
0.11218
0.109281
0.108022
0.108563
0.11137
0.115556
0.12017
0.125434
0.131433
0.13711
0.141782
0.142489
0.118628
0.137347
0.134075
0.129239
0.122392
0.117419
0.113547
0.111338
0.107398
0.105434
0.104932
0.105679
0.107659
0.109592
0.11048
0.111102
0.110893
0.110921
0.110961
0.111034
0.111095
0.111017
0.110413
0.109961
0.110066
0.110084
0.110453
0.111322
0.111321
0.111835
0.112994
0.11456
0.11635
0.118365
0.120358
0.122442
0.124191
0.125851
0.127216
0.128538
0.12969
0.130702
0.13147
0.132008
0.132306
0.132328
0.132132
0.131649
0.130921
0.13
0.128889
0.127358
0.125557
0.123559
0.121667
0.119875
0.11803
0.11603
0.114275
0.112348
0.110655
0.108998
0.107431
0.105877
0.104241
0.102733
0.00108492
0.00224152
0.00390855
0.00631774
0.00900178
0.0115929
0.0144964
0.0192101
0.0264284
0.036681
0.0483814
0.0600546
0.0694555
0.0762122
0.081699
0.0866635
0.0912535
0.0945421
0.0951982
0.0929338
0.0888276
0.0845704
0.0818888
0.0816734
0.0839726
0.0881936
0.0938944
0.10016
0.106125
0.111458
0.115848
0.119427
0.121685
0.121178
0.117133
0.113522
0.109534
0.105456
0.10013
0.096579
0.0948669
0.0924982
0.0902506
0.0895146
0.0902167
0.0921581
0.0935668
0.0941205
0.0957372
0.0973137
0.0991092
0.100278
0.100876
0.101121
0.101302
0.101222
0.100951
0.100758
0.10104
0.10131
0.10194
0.102729
0.103406
0.10443
0.10591
0.107778
0.109861
0.112137
0.114373
0.116655
0.1186
0.120521
0.122078
0.123514
0.124766
0.125864
0.126705
0.127302
0.127668
0.127732
0.127496
0.126988
0.126252
0.125367
0.124351
0.122894
0.121102
0.119237
0.117483
0.115806
0.114034
0.112287
0.110671
0.108863
0.107328
0.105741
0.104213
0.102687
0.101121
0.099701
0.000156431
0.000583129
0.00132909
0.00251402
0.00402572
0.0056085
0.00717706
0.00905623
0.011988
0.0163117
0.0206416
0.0249699
0.0299531
0.0356359
0.0420442
0.0484117
0.0535797
0.0562886
0.0561655
0.0543265
0.0526285
0.0524942
0.0544894
0.0585622