/*--------------------------------*- C++ -*----------------------------------*\
  =========                 |
  \\      /  F ield         | OpenFOAM: The Open Source CFD Toolbox
   \\    /   O peration     | Website:  https://openfoam.org
    \\  /    A nd           | Version:  6
     \\/     M anipulation  |
\*---------------------------------------------------------------------------*/
FoamFile
{
    version     2.0;
    format      ascii;
    class       volScalarField;
    location    "0.1";
    object      epsilon;
}
// * * * * * * * * * * * * * * * * * * * * * * * * * * * * * * * * * * * * * //

dimensions      [0 2 -3 0 0 0 0];

internalField   nonuniform List<scalar> 
8000
(
3671.54
77250.9
269405
507739
626022
511354
280791
132096
58367.6
24122.7
9322.92
3677.74
1965.4
3100.4
2811.66
2148.82
2878.99
11075.1
6031.26
3107.13
2731.48
3905.35
7159.62
12723.1
19362.9
26174.4
30852.2
34497.6
38352.2
39402.2
34303.5
20086.9
13592.3
9196.71
6196.55
4226.67
3043.63
2421.69
2128.35
1955.31
1750.91
1587.13
1486.09
1444.92
1484.34
1597.6
1794.49
2098.24
2742.62
3286.32
4427.25
3358.91
2902.76
2950.9
3222.4
3621.5
4200.47
5079.1
6490.3
8617.95
11461.9
14673.5
17949.9
21033.8
24853.9
27667.5
30274
32790.5
35482.5
37453.1
39601.1
40983.9
42282
43117.6
44365.5
44083.8
44633.1
44756.3
44592.7
43876
42202
41073.4
39809.5
37775.1
35107.2
31759.4
28898.1
26063.1
23153.8
20879.6
19063.8
17595.1
17493.4
15056.8
12817.2
11466.1
10742.7
10985.6
9343.24
8588.09
3242.01
67164
251090
468611
576754
463396
247788
112172
48563.3
20132.5
7789.1
3156.15
1948.79
4515.26
5005.25
2677.58
2775.09
5343.56
4636.57
3290.47
2932.23
4068.75
7373.26
12967.7
19414.2
26099.3
30596.2
33875.3
36517.3
34769.9
28091.8
19545.2
13510.9
9258.61
6314.73
4349.57
3153.57
2533.33
2275.85
1992.55
1846.78
1695.8
1583.14
1528.82
1560.91
1675.14
1873.98
2146.55
2622.28
3119.6
3478.22
3030.85
2933.62
3071.49
3385.91
3867.93
4583.18
5622.88
7157.49
9338.05
12193.5
15333.1
18551.3
21563.1
25161.1
28078
30646.9
33128.2
35838.7
37742.6
40225.6
41217.4
42407.1
43237.3
44260
44205.3
44764.1
44907.6
44738.2
43979.8
42288.6
41137.2
39868.4
37859.5
35119.5
31783
28915.2
26075
23245.6
20893.1
19075.5
17602.7
17532.6
15044.5
12814.5
11465.8
10742
10990.5
9341.5
8584.8
2343.17
48383.9
225214
377010
541200
411784
215722
109342
46405.6
16218.8
5926.43
2477.56
1985.08
3652.82
10245.6
3506.89
2329.71
3295.5
3350.74
2506.75
2756.25
4264.28
7825.12
13523.6
19526.3
25871.1
30022.6
32854.5
34266.9
31718.6
25634.4
18753.8
13273.1
9315.96
6517.32
4583.52
3385.94
2789.61
2557.41
2438.58
2184.58
1961.34
1801.74
1712.38
1726.65
1844.91
2057.7
2317.29
2655.58
2967.02
3109.79
3078.96
3225.02
3443.11
3844.8
4512.23
5508.21
6833.01
8567.21
10841.7
13730.6
16721.6
19838.7
22699.2
26126
28962.1
31461.3
33861.1
36626.2
38403.6
41038.9
41657.2
42656.2
43490.4
44427.2
44464.3
45066.4
45247
45061.7
44195.9
42479.8
41270.1
39989
38030.2
35139.1
31835.1
28954.5
26103.8
23301.3
20911.5
19100
17619.9
17612.9
15017.1
12808.8
11464.7
10739.6
10999
9337.01
8576.55
1869.68
32285.6
206644
392573
451258
332749
168695
76206
32647.4
12425.4
4684.11
2143.4
2216.16
3497.38
5546.58
2670.72
1986.25
2345.71
2462.62
2547.82
2906.39
4515.76
8428.86
14256.7
19834.4
25024.8
29063.8
31807.8
32352.2
29140
23773.2
17938.8
12960.8
9324.39
6713.12
4738.82
3648.84
3077.51
2923.45
2887.23
2617.37
2367.6
2153.07
1989.34
1969.52
2109.79
2370.96
2670.24
2964.14
3234.25
3394.78
3520.74
3874.13
4211.51
4773.29
5718.05
7080.4
8735.73
10631
13000
15925.1
18712.5
21724.6
24385.5
27659.4
30286.9
32663.4
34913.9
37786.3
39385.6
41780.8
42198.5
43210.7
43932.7
44779.9
45005.3
45583.3
45792.8
45518.6
44806.4
42789.8
41463.9
40158.8
38208.3
35285.4
31928.7
29012.2
26146.3
23344.3
20937.8
19139
17641.5
17718.2
15014
12804.9
11463.2
10735.7
11003.9
9348.92
8567.79
1699.94
16237.9
107284
320424
314386
224224
107687
47541.1
20619.2
7977
3308.26
1921.91
2181.46
3994.43
9226.67
3097.12
2001.87
2066.82
2605.52
2743.67
3057.09
4930.35
9328.21
15282.8
20636.7
26144.7
29610
31312.2
31039.2
27533.8
22541.1
17277.8
12653.5
9253.17
6817.66
5091.67
3972.13
3458.38
3391.31
3382.59
3137.51
2960.12
2730.99
2356.11
2281.93
2472.6
2837.1
3252.14
3577.92
3957.95
4202.59
4565.34
5309.09
5697.79
6359.55
7612.86
9355.75
11395.3
13305
15712.8
18647.9
21226
24106.7
26544.3
29771.2
31990.8
34191.7
36253.3
39110.1
40581.1
42470.6
42928.3
43818.3
44495.9
45283.9
45628.7
46230.9
46581.2
46135.1
45457.4
43179.6
41701.1
40385
38326.3
35428
32043.1
29086.7
26197.4
23389.3
20970
19190.7
17676.5
17807.3
14998.6
12799.9
11461.5
10730.3
11008.4
9353.06
8554.43
1627.86
12815.5
121237
226274
190536
130661
58353.2
27645.6
11422.6
4859.03
2678.55
2248.29
2645.65
4623.18
6029.35
3723.28
2231.34
2116.9
2952.94
2818.85
3289.64
5568.07
10471.8
16026.3
21339.8
26911.2
30723.2
30983.4
30381.4
26528.6
21717
16736.3
12359.8
9193.87
6974.87
5368.26
4282.77
3787.46
3769.29
3808.3
3734.61
3429.16
3354.92
2727.85
2632.92
2921.19
3430.91
3911.24
4423.77
4940.22
5431.01
6045.77
7344.16
7817.35
8664.23
10234.8
12291.6
14845.7
16513.8
18875.9
21807.2
24208.5
26854.1
29082.4
32418.4
33992.4
36013.8
37988.7
40594.7
42027.9
43514
43803.2
44530.1
45178
45908
46323.7
46986.5
47712.3
46934.9
46141.5
43612.6
42082.9
40672.8
38472.9
35595.4
32177.3
29176.7
26249.1
23432.1
21006.5
19253.5
17724.9
17826.2
14980.1
12795.7
11459.7
10723.2
11007.6
9350.08
8537.23
1471.36
10966
80743.9
116080
96170.3
85931
35929
14756.6
6621.12
3770.23
2955.1
3211.79
4020.99
5509.52
5456.96
4109.28
2621.84
2240.97
2551.32
2776.07
3620.26
6349.6
11477.3
17649.5
22526.8
27563.2
34344.4
30762.9
29664.8
25574.4
21063
16244.7
12107.6
9199.87
7291.36
5913.06
4722.1
4188.98
4299.4
4273.89
4233.62
3703.62
3335.25
2980.39
2992.52
3381.37
4088.09
4634.01
5442.81
6345.64
7105.2
8174.54
9762.34
10617.5
11750.2
13557.3
15762.5
18616.9
20052.8
22361.6
25482.4
27667.5
29899.5
31856.2
34973.2
36221.4
38070.4
39946.1
42260.3
43594.6
44655
44780.4
45354.2
45966.5
46622.9
47076.1
47829
49317.8
47977.9
46789.9
44077.5
42570.5
40849.9
38579.4
35748.2
32325.4
29281.2
26292.7
23474.5
21045.3
19324.4
17786.2
17727.5
14973.4
12798.2
11458.2
10714.4
10997.4
9340.53
8516.79
1294.95
11100.5
55007.5
71079
52973.8
37479.7
18571.1
9565.66
5596.07
4261.35
4087.53
4834.62
8091.57
6441.8
5065.94
4039.21
2983.75
2565.63
2724.85
2995.43
4340.7
7226.14
12097.4
19854.2
23585.3
28687.4
30258.7
30068.1
29130.4
24841.3
20309.6
15553.5
11785.2
9213.83
7535.03
6820.07
5427.13
4741.7
4973.97
4984.53
4369.88
3888.85
3508.87
3275.81
3391.44
3924.93
4883.7
5875.6
7110.58
8382.12
9445.32
10894.2
12734.6
14323.2
16085
17547.9
19785.7
22483.7
23954.2
26026.1
28565.8
31415.9
33067.4
34931.1
37289.3
38641.7
40263.4
42015
44082.7
45113.5
45761.7
45820.5
46271.3
46843
47377.9
47872.7
48696.9
51418.8
49212.5
47394.7
44618.8
43041.6
41062.2
38711
35848.8
32478.1
29391.1
26356.9
23523.8
21085.1
19399.1
17858.1
17523.5
14980.1
12804.4
11456.9
10703.4
10974
9324.49
8493.66
1206.21
10129.9
34642.6
41853.6
30435.3
18120.8
10695.3
7589.76
6064.67
6008.32
5869.55
6909.3
10909.6
9000.64
5671.13
4660.06
3595.07
3179.76
3300.83
3470.44
5191.34
8406.25
13688.2
19732.6
24077.3
29787
30267.8
29298.7
28237.8
23462.4
18998.5
14773.6
11475.6
9107.73
7992.29
6847.02
6098.24
5408.64
5573.9
6011
4637.9
4019.86
3721.8
3676.48
3951.93
4782.11
6080.37
7705.68
9564.33
11211
12597
14171.2
16424.6
18352.7
22263
22136.9
24413.2
26688.5
28060
29841.6
32026.9
34908.8
36269.1
38113.9
39845.4
41125.2
42515.9
44203.7
45827.5
46624
47108.4
46975.6
47256
47729
48260.6
48701.2
49452.6
53582.8
50201.1
48034.9
45208.2
43463.5
41282.9
38870
35926.9
32647.9
29518.8
26417
23573.5
21124.7
19472.1
17935.7
17265.1
15009.8
12815.8
11455.8
10690.3
10934.5
9302.07
8468.34
1189.33
7263.32
19941.9
23556.8
18285.2
11954.5
8381.5
7852.83
7784.72
7419.87
7858.74
8452.08
12253
10221.6
6952.68
5561.38
4401.15
3694.42
3446.47
4059.99
6027.43
9587.26
15029.8
20479.9
25162.6
31270.4
30072
28211.9
26238.6
22221.2
17994.9
14139.7
10861.6
8861.12
8786.42
7121.83
6362.28
6183.51
6022.3
5884.63
4913.06
4298.98
4108.89
4299.03
4820.91
5991.39
7826.59
10192.2
12958.3
14898
16762.4
18363.5
20641.3
22789.3
26475.9
27124.3
29169.6
30781.8
32088
33645
35783.5
38235.7
39648.9
41018
42610.9
43558.7
44750.8
46416.8
47563.6
48134.1
48383.9
48143.8
48279.9
48662.4
49163.7
49552.3
50195.1
55163.6
50436
48618.9
45878.4
43998.7
41532.6
39062
36025.4
32825.9
29669.6
26476.6
23623.1
21165.9
19536.3
18011.9
16998.5
15071.3
12833.6
11455
10674.8
10877.3
9273.62
8441.33
1214.03
5116.06
12709.1
15972.4
14058.2
10350.7
9675.81
9526.36
9684.96
9178.19
8438.25
9447.57
11810.6
11725.5
8457.58
6181.9
4845.76
4044.35
3788.76
4823.42
7148.2
11043.4
16547.4
21577.3
26031.5
29957.1
29418.5
27226.5
24870.7
21316.5
17375.6
13666.1
10713.1
8871.29
7943.12
7062.31
6682.03
7143.94
7317.66
6613.13
5394.32
4829.3
4749.1
5268.54
6155.9
7693.87
10204.3
13027.1
16774.1
19512.7
22833.9
23543.3
25338.4
27645.8
32492.4
32101.2
33919
35315.7
36415.5
37477.7
39818.2
41747.8
42982.1
43986.2
45581.7
46039.9
46968.2
48498.5
49329.7
49528.1
49576.1
49303.7
49318.6
49615.6
50067.2
50362.8
50929.7
53909.2
50669.8
49162.2
46521.8
44468.4
41781.5
39302.8
36112.5
32991.3
29853.1
26538.8
23673.8
21196.7
19585.1
18078.4
16758
15169.9
12858.2
11454.2
10657.1
10802.2
9241.67
8413.09
1645.06
4898.28
11000.4
15055
16036.4
13057.9
13721.2
12231.5
11294.6
10395.4
9320.64
10912.9
13846.4
12350.3
9013.24
6172.82
4773.99
4069.11
3917.53
5874.26
8355.03
12504.6
18208
22650.9
27105.3
30360.4
28584.5
26113.6
23928.8
20595.6
17041.1
13733.7
10908.6
8957.06
7700.65
7073.1
6929.4
7591.91
8674.11
7232.91
6001.2
5791.88
5712.44
6670.55
8153.18
9931.38
13469.8
16758.7
20210.1
24114.9
31252.4
28698.7
29630.8
31663.6
35858
36789.2
38879
40638.1
40594.2
41407.5
43724.4
45072.1
46189.9
46832.8
48565.9
48358.9
48968.8
50225.7
50830.9
50889
50763.3
50441.4
50351.4
50566.1
50966.7
51179.5
51652.8
53269.9
51252.3
49777.9
47008.5
44862.7
42030.9
39572.3
36199.9
33140.2
30073.8
26602.7
23722.6
21258.7
19619.5
18125.4
16558.6
15306.7
12889.1
11453.1
10637.1
10710.5
9204.28
8384.03
5134.04
9502.62
15142.5
19875.8
21010.6
17350.8
16064.8
13672.9
11822.2
10925
10685.8
14050.8
15931.7
15995.1
8798.32
5920.6
4630.14
4029.95
4348.21
6686.07
9703.51
14087.5
19848.9
23826
27556.8
33136.3
29029.5
25993
22561.9
19604.3
16915.9
14511.7
11353.8
9425.53
7961.54
7216.58
7137.87
7576.97
8142.33
7732.28
6633.93
7185.8
6999.82
8511.92
10513.8
12416.5
16841.5
23708
23879
27677.2
34593.7
32071.4
33741
36305.3
41698
41253.6
42961.8
46212.2
44637.9
45330.7
47399.5
48348.5
49169.8
49463.2
51092.2
50335.2
50719.7
51696.5
52240
52143.6
51871.6
51546.5
51359.8
51495.4
51850.1
51986.5
52397
53151.1
51304
50472.3
47462.4
45176.7
42282.2
39842.8
36289.5
33267.4
30301.2
26664.3
23803
21385.6
19620.4
18163.9
16407.6
15477.3
12925.2
11451.6
10615
10607.4
9162.63
8354.55
20733.7
22914.5
23419.7
27376.1
30757.5
22205.8
17646.7
14439.6
11513.1
8755.33
9326.61
11205.6
16053.7
15101.1
8561.3
5923.77
4702.87
4181.16
4979.36
8312.11
11406.5
15505.8
20678.8
24918.1
27881.4
29756.8
28722.7
25171
22005.4
19032.6
16311.6
16115.5
11960.6
9862.07
8414.98
7578.76
7511.05
7935.73
8491.98
7972.03
7379.84
7612.38
8567.44
10884.8
12819.6
15012.1
19359.3
23757.6
27700.4
31803.3
35663.5
35632.4
37987.9
40511.4
45020.7
45221.2
47017.4
48949.2
48570.5
49430.6
50886.3
51529.7
51886.5
51982.3
53005.1
52034.9
52327
52990.3
53485.3
53265.4
52912
52613.4
52326.8
52389.4
52695.4
52763.2
53217.5
53280.3
51748.8
51227.8
47858.1
45463.9
42569.6
40054.6
36372.4
33359.9
30434.8
26716
23975.6
21680.6
19617.3
18193.5
16292.7
15671.9
12964.2
11449
10591
10493.9
9118.05
8324.96
58015.4
37833.7
31581.4
31540.3
26109.9
20840.8
17664.3
14425.1
9837.59
9395.67
7884.41
10217.6
13217.8
14014.3
8385.07
6026.43
4923.24
4447.68
5929.16
9458.66
12974.7
17663.1
24503.7
26989.7
28668
29845.9
29191.1
24651.5
21392.9
18657.5
16593.3
14554.8
11845.7
9697.53
8820.25
7938.14
8074.68
8006.55
8910.91
8721.59
8271.85
8802.17
10758.9
14426.1
16209.6
18327.2
23216.1
27291.4
31678.6
36169
39092.2
39793.2
42239.2
44800.9
48506.1
49089
50824.9
52485.7
51534.3
54930.1
54074.4
54426
54497.6
54309.5
54565.3
53510.8
53673.8
54102.4
54550.5
54273
53889.7
53637.9
53238.5
53236.3
53475.5
53473.3
54239.1
54298.8
52192.8
51819
48207
45718.3
42842
40206
36443.8
33429.2
30419.9
26756.9
24327
22437.9
19584.2
18208.8
16205.7
15875.3
13002.5
11445
10565.3
10374.3
9071.82
8295.54
55037.1
37637.2
32992.9
26895.7
25582.6
21698.8
19142.8
14526.8
10480
8752.31
7729.19
8876.71
10819.3
14108.5
9249.39
6390.34
5318.58
5396.25
7674.51
11337.6
15898.5
20572.4
25456.8
29497.5
28950.3
30099.9
31370.5
24888.9
21232.4
18599.2
18092.9
14542.6
11318.1
9459.28
8538.01
8005.81
8661.71
8402.38
8871.74
10574.8
9936.26
10744.7
13760.5
19855.7
22686.8
22715.9
27759
31675.5
36572
41346.7
44049.9
45019.5
47637.1
50347.4
52896.1
53515.4
55282.9
56751.2
56012.3
56548.5
57308.2
57906.8
57090
56614.9
56206.9
55060
54971.3
55185.6
55706
55442.1
54978.6
54804.4
54245.8
54181.4
54285.3
54184
54781.5
57783.5
52690.7
53348.1
48551.8
45978
43185.2
40299.7
36502.1
33459.4
30322.3
26777.6
24545.1
23707.4
19514.5
18222.3
16124.6
16105.3
13042.6
11437.7
10533
10229
9016.03
8260.85
16687.2
34401.4
32772.8
29864.6
28581.6
26932.4
22547.1
15726
11855.4
9401.51
7842.92
8235.45
9059.96
12615.3
8864.11
7010.41
6092.16
6878.51
10265
13974.1
19113.9
23671.3
27987.9
30117.5
29878.8
32794.2
28971.6
24811.8
23785.1
18122.8
15712.3
12796.2
10405.4
9124.89
8367.06
8040.57
8349.57
8796.39
9427.05
11142.5
12849.3
13649.2
17354.8
21377.8
24329.8
27303.3
32884.9
37620.9
42696.7
46925.7
49473.4
51197.5
53952.5
55903.3
57739.1
58073.8
59624.3
61731.9
59898.3
59836.8
60271
65067.1
59240.2
58589.6
57799.8
56463.7
56100.5
56240.4
56795.4
56555.3
56082.4
56043.4
55256.2
55066.7
55135.1
54844.8
55170.6
54434.7
53120.7
52769.7
48791.9
46228.6
43571.8
40311.3
36497.4
33428.2
30251.9
26771.8
24456.3
22655.6
19389.1
18228.7
16048.2
16303.9
13068.9
11424.2
10494
10067.7
8953.32
8222.18
3303.39
26990.7
32105.7
31084.8
31923.1
30968.5
24837.4
18411.7
14068.4
10990.7
8667.12
8439.89
8901.44
10435.7
8916.36
7557.71
7529.47
9268.6
12488.4
16357.8
24753.8
27368.3
31314.3
31556.9
32915.7
31029.9
28348.3
24228.8
22833.8
17361.3
16645.1
12683.7
10162.3
9163.78
9062.24
8158.84
8511.9
9033.82
10072.1
12774.3
14846.5
17768.5
21966.7
28286.2
29489.7
33164.2
38723.5
43571.5
48822.1
52434.8
54770.6
57738.9
59455.6
61076.2
62326.6
62238.7
63051.2
65404.9
62529.8
62345.8
62254
62277.1
60553.4
60024.4
58966
57465.6
56939
57079.6
57561.4
57383.4
57010.1
57129.1
56094.6
55811.4
55786.4
55439.8
55648.5
54645.6
53456.2
52152.4
48963.2
46428.4
43816
40250.4
36447
33324.9
30182.9
26732.1
24511.7
22836.6
19238.2
18203.8
15970.9
16384.6
13064.3
11404.1
10454.1
9920.46
8894.27
8185.12
935.879
15317.8
25963.4
30053
32508.9
30451.6
24870.4
20325.4
16563.6
13199.9
10265.1
8809.34
9048.08
9756.46
9536.17
9043.65
9596.11
12689.3
15415.4
20359.1
27486.7
31836.8
35147.9
34184.2
33639.3
31889.7
28355
24313.4
20017
16484.7
14512.7
11489.9
9854.9
9148.29
8495.03
8236.83
9121.85
9996.87
11132.4
14970.6
19343.7
22944.5
26777.4
32000.9
34923.9
40160.1
44544.4
49189
54527.6
57554.9
60315
62914.9
64649.5
65368.9
66157.3
65506.8
66007.6
66506.6
64204.5
64208.6
64128.7
63266.1
61406.5
61110.1
59961
58229.5
57506.2
57574.2
57987
58172.1
57799.9
57947.9
56741.8
56384.9
56223.7
55893.9
55919.6
54656.1
53636
51899.4
49069.8
46530.5
43865.7
40107.5
36341.8
33153.6
30082.3
26654.2
24471.7
21827.7
19062.7
18130.8
15883.4
16313.4
13021.6
11376.6
10413.5
9791.27
8839.73
8149.43
429.397
6049.35
16762
24648
28127.9
25307.1
22247.8
20866.2
19070.5
16277.6
13011
11809.2
10116.5
10171.2
10580.5
11283.3
12592
16037.2
20558.7
26136.1
33370.7
39039.6
37395.6
36799.3
35563.4
33884
28701.8
27011.7
20485.8
16528
13939.5
11447.7
10338.8
9358.85
8904.48
8662.27
9515.66
11704.5
13266.8
18278
24705.5
28703.3
32988.7
37702.6
41123.1
45403.7
50681.8
54530.1
59270.7
61853.1
64778.1
66645.7
68355.9
69404.1
68987.4
67710.7
67986.2
67410.6
65496.4
65395.5
64778.4
63557.8
61940.6
61737
60509.4
58579.4
57795.6
57840.2
58197.1
58641.3
58398.8
58434.1
57182.2
56766.6
56455.7
55966.5
55968.3
54563.9
53595.2
51765.8
49158.8
46569
43710.2
39914.5
36173.8
32926.6
29930.5
26534
24468.4
21258.7
18885.4
17996.9
15772.7
16090.3
12938.8
11341.4
10372.1
9680.75
8789.68
8114.69
268.025
2055.35
8587.19
16555.2
19883.4
17957.2
18075.8
20266.3
21283.5
19948.9
16847.4
14431.4
11763.1
11629.8
12587.8
13860
17073.5
23510.5
27786.6
33078.4
38424.9
40450.6
40491.5
40125.1
38466.6
37325.1
31511.5
26460.1
21205.6
17271.3
14663.8
12293.7
10980.4
10216.7
9886.82
9991.92
11276.5
14472.7
16855.1
23446.1
31902.3
34036.8
40699
43711.8
47103.3
51269.9
56547.3
58825
63000
65283.4
68137.8
69017.6
70052.5
68360.7
71025.6
69067.4
68668.3
67879.9
66343
65928.4
64943.7
63510.8
62070.2
61844.9
60437.5
58527.5
57818.9
57876.2
58197.1
58887
58768.2
58569
57402
56948.4
56528.6
56176.4
55939
54442.2
53410.5
51543.7
49143.8
46476.5
43466.9
39652
35932.5
32651.8
29735.7
26358.2
24304.6
20950.7
18708.6
17807.4
15639
15741.1
12831.4
11299
10329.6
9586.52
8743.34
8080.34
190.866
765.741
3705.78
8950.11
11433.2
11040.6
13635.9
18942.9
23140
24038.2
21982
18051.5
15772.9
16046.8
16525.4
18716.1
25172.4
31041.7
38080.6
41957.1
45756.1
44641.6
45379.9
43961.6
42493.1
43340.4
34374.5
29206
23539
19634.3
17090.6
14670.5
13976
12967.5
12740.7
13017.1
15336.5
18185.7
22433.4
29645.7
36929.6
42641.6
45639
49297.5
52616.4
56159.9
59813.7
62183
65728.3
67668.2
70412.4
70341.6
70646.8
74856.3
71902.7
69326.5
68683.3
67829.2
66517.5
65729
64742.4
63211.9
61793.2
61338.6
59993.8
58274.7
57593
57683.9
58007
58939.2
58880.8
58406.1
57391.6
56930.7
56457.3
56159.3
55700.9
54180.5
53079
51188
48948.2
46223.1
43181.9
39285
35616.3
32332.4
29451.3
26146.1
23957.9
20696.9
18529
17562.2
15482.8
15315.8
12702.3
11250
10285.5
9509.28
8699.62
8046.04
146.403
366.255
1516.66
4083.7
5643.41
6421.85
10352.8
17841.7
25100.6
28676.6
28101.2
24392.1
21988.5
21770.9
23237.3
26982.7
33966
43433.1
45747.6
52401.6
51847.4
50560.4
49787.3
47816.7
45206.2
45197.6
35703.7
32496.1
27147.5
24008
21909.7
19980.7
18970.5
18093.6
17827.2
18427.7
20891
24400.2
29462.1
36025.3
43356.8
48913.5
50635.9
54881.5
57356.6
59735.1
62019.5
64608
67469.5
69115
71953.9
70776.3
70636.4
71369.4
71072.5
68951.6
68117.3
67069.8
66610.2
66929.5
64291.4
62784.6
61186
60525.1
59160.1
57708.8
57125
57270.9
57631.6
58725.5
58822.1
58083.4
57167.7
56717.3
56226.6
55894.2
55257.6
53775.1
52605.9
50665.9
48508.8
45839.5
42888.5
38828.6
35231.3
31968.7
29107.2
25883.9
23500.5
20455.4
18344.9
17280.2
15310.3
14868.6
12562.8
11195.4
10239
9442.2
8657.1
8010.72
121.758
235.453
700.532
1809.15
2762.11
4042.97
8445.36
17257.7
27371.7
33846.3
35284.4
33244.6
31049.8
31170
32634.2
39929.1
46647.4
55623.9
55954.8
65080.1
59426.4
56886.6
54910.7
51316.1
50079.8
46150.3
40738.5
36785.8
33452.6
31417.5
30085.3
28258.8
27260.1
26018.2
25391.8
26106.3
28210.3
33105.5
36746.6
46442.2
51137.3
54740
56278.6
59642.5
60803.3
62176.6
63538
66279.9
68158.8
69725.7
72728.1
70182.5
69690.3
69514.4
69615.9
67874.7
67035.5
65981.7
66306.5
65601.8
63451.1
62259.9
60306.4
59381.4
58002.5
56885.3
56434.5
56651.9
57067.6
58315.4
58566.6
57571.1
56750.9
56313.8
55820.8
55439.4
54664
53229
51998.2
50037.9
47846.9
45312.9
42439.3
38287.5
34788.3
31560.1
28713.9
25570.8
23030.6
20213.2
18155.1
16982.2
15128.1
14442.9
12422.4
11135.6
10189.5
9381.39
8614.41
7973.71
113.087
200.54
440.936
968.208
1606.7
2873.65
7153.62
16628.4
29339
39104.4
43140
42976.7
42047.8
43083.7
46070.4
56084.2
59256.6
65603.2
68151.3
70378.4
67506.9
65028.5
62075.7
58522.9
56148.2
52531.4
47975.6
44652.2
42929.8
41463.1
40665.6
39102.4
37866.4
36163.6
34890.2
35815.9
37302.3
41026.9
44898.1
53334.4
57274.6
59906.4
60523.5
63468
62923.8
62968.2
64216.5
67045.5
67994.3
69223.1
70549.5
68518.9
67925.1
67616.5
67706.1
66541.8
65523
64601.7
65619.2
63654.4
62248.8
61489.9
58910.6
58057.1
56810.5
55870.2
55543.6
55840
56322.7
57706.1
58096.4
56914.3
56152.1
55728.3
55237.6
54816.1
53939.2
52544
51262.5
49303.2
47073.2
44639.6
41671.4
37689.5
34283.2
31104.6
28271.3
25212.8
22593.2
19965.5
17958.4
16685.3
14941.9
14064.5
12286.4
11070.8
10136.3
9323.59
8570.29
7934.33
121.434
216.973
389.708
718.335
1176.36
2154.34
5830.81
15290.5
30051.3
43614.3
50978.9
53170.7
54151.5
56791.3
62199.4
70048.4
73096.8
75846.5
77715
79429.6
76923.4
74242.9
70716.8
66954.8
64133.1
61055.2
57510.1
54228.7
53413.7
52324.3
51812.4
50198
48850.3
46878.7
45516.4
45652.5
46464.5
49087.4
52596.1
58278.9
62190.7
64018.4
63546.5
63477.6
63471.8
62795.7
63867.7
66268.8
66415.8
67610.5
67663
66077.8
65491.7
65218.5
65374.2
64756.5
63612.9
62942.5
64322.6
61650.4
60784.9
60111.6
57199.2
56529.2
55406.6
54663.8
54471
54852.6
55403.3
56904.7
57406.4
56087.7
55378.9
54967.1
54483.7
54028.8
53083.9
51720.4
50404.5
48461.2
46222.4
43859.6
40728.4
37021
33732.7
30600.8
27786.1
24816
22192.1
19709.8
17753.6
16400.1
14754.9
13741.6
12156.4
11000.9
10078.7
9266.14
8523.63
7891.97
152.732
271.464
415.54
650.652
954.053
1555.08
4313.35
12931.4
28741.2
46231.9
57712
63059.7
66460.6
70861
77463.3
83423.1
86169.4
87860.5
88765.6
89501.5
87150.4
83993.5
79949.5
75602.7
72864.3
69382.3
66838.8
64490.2
63803.1
62493.2
61560.1
60377.9
59066.2
56883.3
55184
54652.9
54868.1
56142.8
58268
62155.1
66021.8
66428
65502.3
63436.2
62395
61221.3
61999.6
63920
64279.3
65054.8
64473.6
63129.2
62552.7
62367.7
62703.5
62565
61316.2
60650.2
62512.1
59701.3
58763.9
57989.8
55405.9
54778.9
53827.2
53292.4
53237.7
53705.5
54314
55932.1
56462.1
55071.5
54436.5
54040.7
53565.3
53082.5
52096.5
50760.1
49427
47510.3
45294.8
42956.8
39754.5
36294.5
33114.8
30048.2
27264.6
24395.3
21807.9
19444.1
17539
16130.5
14568.5
13469.6
12031.3
10925.6
10016
9206.91
8473.53
7846.05
217.574
350.185
441.239
581.404
736.667
1014.86
2777.4
9713.97
25055
45727.9
61815.7
71150.1
77561.7
83789
90761.1
95659.8
97834.8
98723.3
98841.4
98958.3
96427.2
92627.6
87841.9
82579
79254.6
75889.7
72038.7
71834.3
70879.5
70150.7
69651.9
68682.9
67509.6
65084.9
62937.2
61460.2
60789.5
60677.8
61386.4
64088.3
68427.4
67030.8
69705.6
61751.1
60163.2
59046.1
59370.2
61142.1
61413.1
61735.3
60945.5
59785.8
59249.4
59166
59813
59948.7
58634.9
58091.8
60199.8
57438.5
56494.4
55379.2
53360
52855.5
52110.5
51783.2
51864.6
52413.4
53067.5
54754.1
55280
53854.9
53334.8
52958.5
52490.3
51982.9
50978.9
49668.7
48333.5
46450.6
44279.5
41946
38792.8
35510.6
32434.2
29448.6
26711.3
23946.1
21426.2
19166.4
17313.4
15875.4
14382.2
13237.8
11908.9
10844.1
9947.55
9144.3
8420.34
7796.1
323.415
402.841
393.984
435.627
487.998
584.269
1515.43
6234.61
19235.3
40790.8
61511.4
75489.7
85433
93600.5
100798
104856
106249
106505
106203
105717
102648
98008.6
91882.7
85422.8
80641.2
77107.7
74219.8
73456.2
73727.7
73774.9
74384.4
74300.7
73267.5
70646.9
68023.9
65462
63640.2
61917.5
61785.7
64059.1
68281.2
65653.2
62152.3
59264.3
56845.3
55938.5
56134.1
57702
57897.2
57956.9
57132.5
56156.5
55701.3
55728.9
56766.9
56934.5
55599.8
55285.5
57419.2
54904.7
54034.9
52672.4
51182.6
50819.3
50291.2
50161.2
50371.1
50991.6
51678.3
53242.1
53845.7
52574.8
52085.7
51727.8
51268.4
50742.7
49736.6
48453.1
47128.4
45286.8
43171.4
40847.9
37797.7
34672
31696.6
28805.1
26134.6
23473.2
21038.3
18875.5
17076.1
15631
14194.7
13033.6
11786.3
10756.1
9872.9
9077.19
8362.08
7741.78
452.258
328.345
245.606
242.924
261.789
299.27
703.266
3292.91
12315.2
31304.3
55453.4
74056
87687.6
97731.9
105000
108286
109011
108942
108391
107132
103074
96663.9
88955.6
81409.3
76477.3
73099.3
71450
71655.2
73088.2
74797
76370.3
76666.3
75371.3
72590.9
70175.4
66208.2
63566.3
60299.2
59671.4
61567.3
65382.1
62764.7
70881.5
55407.1
52881.4
52244.2
52463.3
53739.4
53909.2
53865.6
53131
52348.3
52009.4
52144.3
53153.4
53724
52663
52293.7
54246.2
52155.1
51384.5
50011.3
48944.4
48720.1
48400.1
48448.9
48776
49457.8
50162.8
51582
52149
51110.3
50696.1
50361.4
49912.7
49374.3
48379.8
47124.6
45818.2
44023.6
41972.6
39677.2
36756.9
33777
30907.7
28122
25532.7
22980.1
20640.6
18571
16826.4
15392.4
14004.5
12846.2
11661.4
10660.9
9791.67
9004.77
8298.44
7682.83
52.5275
72.715
77.743
91.9164
113.691
145.03
298.395
1418.25
5891.1
17186.6
37476.2
59618.8
76935.4
88565
95472.6
98066.7
98668.7
98802.4
98017.3
95205.4
88819.6
80270.6
71605.6
65202.5
62354.5
61578.7
62698.3
65559.3
68994.2
72147.1
74321.4
74618
73144.4
68607.4
71153.3
60394.2
56707.8
53566.7
52820.2
54588.8
57547.8
55654.8
52627.8
47705.1
46072.4
45785.2
46060.1
46890.7
47066.3
47012.8
46546.6
46084.9
45981.7
46265.7
47308.7
48091.1
47524.1
47273.3
48729.6
47575.9
46943.4
45847.4
45297.4
45287.7
45278.9
45579.2
46075.2
46836.5
47555.4
48727.2
49129.4
48514.9
48259.7
47965.5
47535.2
46988.4
46026.2
44840
43557.3
41846.5
39910.7
37691
35004.3
32253.7
29575.8
26967.2
24528.7
22159.1
19982.4
18059.4
16411
15010.7
13691.6
12558.5
11453.9
10495.9
9649.98
8878.89
8187.02
7580.26
10.4206
16.597
22.7231
32.3463
45.4809
62.2265
94.8171
273.996
1219.51
4024.26
9658.97
19295.3
29853.5
37722.7
42971
46619.3
49765.7
51981.9
51701.2
48525.3
43702.2
39581.3
37464.4
37759.6
40408.5
44301.4
48943.1
53916.2
58285.5
61293.4
62456.7
61407.1
58167.1
54789
50246.1
45292.2
42775.7
40893.6
40678.2
41780.7
44342.2
43873.4
40192.6
37862.4
37029.8
37056.1
37466.1
37994.4
38014.9
38049.6
37918
37906.6
38146.7
38635.2
39632.4
40313
40361.4
40518.1
41484.4
41171.9
40944.3
40455
40394.7
40624.9
40935.5
41475.1
42123.9
42934.2
43649.7
44560.2
44824.4
44607.2
44484.7
44244.5
43845
43310.1
42415.7
41337.3
40127.6
38550.9
36809.8
34780.9
32427.6
30003.7
27603.8
25275.4
23089.8
20981.5
19034.1
17306.6
15795.3
14469.3
13239.3
12163.3
11141.5
10232.9
9422.23
8677.02
8006.82
7416.08
4.37856
7.41903
10.7884
14.9786
20.4336
27.1006
36.4446
61.3378
163.626
435.494
923.139
1877.39
3485.49
5201.72
6958.79
8867.8
10891.6
12475.7
13162.8
13251.5
13558
14794.1
17221
20850.4
25654.7
31057.6
36323.3
40968
44235.1
45718.1
45323.6
43214.9
40002.8
36933.3
33648.4
30832.6
29729
29090.3
29406.3
30598.3
32604.9
31812.4
29893.8
29009
28803.5
29008
29352.2
29651.5
29797.9
30099.8
30375.5
30602
31044.8
31640.7
32494.9
33150.9
33598.6
34064.1
34826.3
35025.9
35187.9
35225.2
35531.5
35988.5
36529.3
37216.5
37952.9
38760.9
39453.2
40182.9
40420
40396.2
40326.6
40133
39767.5
39265.1
38462
37503.4
36399.8
34990.7
33473.9
31692.3
29687.6
27599.7
25510.9
23490.1
21578.4
19734.8
18018.6
16480.4
15108.8
13878.7
12740.1
11733.7
10785.9
9924.56
9153.88
8438.92
7793.54
7223.47
3.6869
5.78916
7.26901
8.69679
10.7248
13.3811
16.7567
22.4025
36.6909
65.5175
106.161
180.014
321.727
516.886
770.987
1095.49
1470.13
1850.87
2267.29
2862.74
3846.89
5428.87
7758
10876.9
14762.4
18993
22834.2
25823.1
27532.9
27877.1
27052.7
25468
23648
22038
20629.2
19757.4
19689.8
19861.2
20512.6
21515.8
22528
22295.7
21773.9
21610.2
21672.1
21911.7
22211.7
22537.4
22882.3
23335.2
23796.1
24308.3
24945.1
25640.3
26364.4
27011.4
27614.6
28182.7
28899.8
29404.2
29861.9
30266.3
30816.9
31441.5
32126.6
32888
33653.2
34422.6
35070.6
35670.9
35911.4
35962.7
35940.3
35765.5
35443.4
34995.4
34300.3
33477.6
32508
31299.3
30028.7
28527.6
26869.7
25122.6
23368.7
21653.6
20016.1
18433.7
16944.3
15588.8
14358.2
13233.6
12194.1
11258.1
10378.4
9575.01
8842.52
8161.96
7545.24
7000.67
3.15901
4.78118
5.49041
5.91679
6.60371
7.69253
9.15373
11.1427
14.438
19.8396
28.4284
43.8234
70.5491
108.972
158.273
215.796
275.881
337.931
423.489
592.098
938.114
1575.96
2614.74
4110.26
6062.8
8261.42
10296.2
11897.7
12882.4
13246.8
13138.3
12779.2
12398.2
12137.4
11981.1
12098.6
12509.5
13003.7
13659.2
14382
15000.1
15204.3
15287
15439.5
15668.1
15988.4
16353.5
16757.2
17214.6
17785.9
18423.8
19071.8
19722.8
20373
21106.4
21817.4
22483.4
23106
23792.1
24400.8
25006.1
25612.4
26300.1
27023.7
27779.7
28558.6
29307.6
30016.7
30605.9
31108
31346.2
31432
31433.1
31286.9
31022.5
30650.3
30079.2
29405.1
28598.1
27629.6
26595.4
25384.5
24058.2
22644.3
21213.3
19798.2
18428
17094.4
15821
14640.1
13548.1
12533
11592.3
10731
9920.41
9174.64
8485.89
7844.38
7260.87
6746.42
2.74006
3.99205
4.34667
4.41928
4.61385
5.07814
5.79227
6.73384
8.00779
9.84647
12.7966
18.0535
26.9751
39.9241
55.715
72.077
87.1875
101.563
119.746
154.727
229.599
380.002
647.932
1071.58
1668.96
2424.99
3239.77
4013.1
4668.26
5163.13
5510.33
5770.79
6017.76
6297.55
6605.5
7005.74
7488.38
7986.8
8516.4
9047.33
9527.86
9881.44
10175.9
10483.3
10833.4
11240.7
11688.8
12177.9
12719.7
13340.7
14005.4
14660.5
15319.9
15965
16631
17279.6
17960
18656.1
19335
19984.2
20630.6
21294.1
22022.1
22775.6
23541.4
24295.5
24999.4
25639.3
26167
26593.1
26825.3
26932.7
26953.6
26850.8
26659.5
26379.2
25944.4
25428.3
24801.4
24071.7
23276
22347.5
21327.4
20225
19092.4
17957
16836.4
15732.4
14658.6
13642
12683.5
11778.9
10935.7
10151.3
9411.34
8723.81
8083.87
7485.84
6940.22
6460.42
2.4371
3.38636
3.54372
3.47369
3.46844
3.65786
4.03764
4.56479
5.24634
6.17165
7.56652
9.81963
13.3189
18.1695
24.0175
30.1957
36.3849
43.0208
51.4281
64.8852
88.3335
128.599
193.775
294.342
440.087
646.231
903.733
1197.54
1507.42
1809.97
2094.18
2369.08
2651.2
2952.8
3273.23
3627.48
4008.99
4398.21
4798.74
5208.15
5609.39
5981.54
6339.13
6711.88
7117.24
7563.81
8046.16
8565.49
9126.18
9736.33
10369.3
10977.4
11573.2
12164.6
12787.1
13410.3
14033.3
14682.2
15367.2
16033.6
16678.2
17333.4
18027.8
18748.9
19476.8
20177.3
20821.2
21393.8
21865.8
22239.8
22469.3
22597.8
22648.7
22604.8
22497.7
22320.8
22027.5
21671
21228.1
20723.5
20151.1
19483.6
18734.9
17909.5
17041.9
16156.6
15260.7
14361.4
13467.7
12603.1
11771.3
10975.4
10227
9520.83
8852.37
8225.19
7638.22
7087.62
6584.25
6143.14
2.19449
2.90388
2.94089
2.80716
2.71135
2.76334
2.97102
3.29809
3.7325
4.31277
5.13703
6.34813
8.06887
10.32
12.9857
15.8778
18.9349
22.327
26.4916
32.4508
41.8649
56.653
78.5686
108.721
149.076
204.229
275.153
363.266
466.857
580.853
701.353
830.631
974.201
1138.12
1325.66
1539.93
1779.2
2039.24
2322.21
2628.02
2948.21
3276.12
3614.24
3974.31
4362.43
4783.1
5235.02
5718.37
6232.84