/*--------------------------------*- C++ -*----------------------------------*\
  =========                 |
  \\      /  F ield         | OpenFOAM: The Open Source CFD Toolbox
   \\    /   O peration     | Website:  https://openfoam.org
    \\  /    A nd           | Version:  6
     \\/     M anipulation  |
\*---------------------------------------------------------------------------*/
FoamFile
{
    version     2.0;
    format      ascii;
    class       volScalarField;
    location    "0.1";
    object      H;
}
// * * * * * * * * * * * * * * * * * * * * * * * * * * * * * * * * * * * * * //

dimensions      [0 0 0 0 0 0 0];

internalField   nonuniform List<scalar> 
8000
(
1.34515e-09
1.40861e-06
1.1133e-05
2.7689e-05
2.74737e-05
2.7268e-05
1.8494e-05
7.9416e-06
2.18929e-06
2.77653e-07
2.00562e-08
4.38842e-09
1.50187e-08
1.23295e-06
7.91838e-07
5.45261e-07
1.13917e-05
1.60727e-05
3.21281e-05
1.15838e-05
1.34497e-05
2.61667e-05
5.0875e-05
5.18748e-05
2.11297e-05
9.88696e-06
8.05699e-06
9.13072e-06
1.20382e-05
1.27858e-05
1.49625e-05
3.06822e-05
4.3353e-05
4.50102e-05
4.14328e-05
3.71329e-05
3.43744e-05
3.49424e-05
4.02091e-05
4.23557e-05
3.93704e-05
3.67953e-05
3.7744e-05
3.97733e-05
3.82693e-05
2.84118e-05
1.54104e-05
7.05488e-06
3.31581e-06
9.48237e-06
6.08449e-07
7.88472e-07
7.07467e-07
6.4626e-07
5.49418e-07
4.36815e-07
3.43469e-07
2.81237e-07
2.47063e-07
2.44839e-07
3.30086e-07
6.24196e-07
9.10412e-07
2.59307e-06
3.84451e-06
3.95127e-06
7.67537e-06
7.26265e-06
8.88316e-06
9.96235e-06
1.91211e-05
1.30724e-05
1.28264e-05
2.49628e-05
2.45385e-05
1.19476e-05
1.19995e-05
1.12103e-05
9.89397e-06
9.31786e-06
1.05282e-05
1.07455e-05
1.23983e-05
2.57278e-05
2.9895e-05
3.45925e-05
3.80685e-05
4.07426e-05
5.81912e-05
4.3325e-05
4.34259e-05
4.34668e-05
4.37627e-05
4.33786e-05
4.07539e-05
3.92541e-05
3.79247e-05
3.6853e-05
3.6307e-05
3.24112e-05
9.69535e-10
1.61976e-06
1.25215e-05
2.80567e-05
2.65361e-05
2.72525e-05
1.75655e-05
7.57091e-06
1.96067e-06
2.12662e-07
1.47102e-08
5.46559e-09
3.92816e-08
8.27172e-06
5.8785e-06
1.45454e-06
3.1847e-06
1.36877e-05
1.63747e-05
1.76217e-05
1.81243e-05
2.98312e-05
5.22898e-05
5.00569e-05
1.9686e-05
9.29353e-06
7.5802e-06
8.89816e-06
1.22114e-05
1.55054e-05
2.16729e-05
3.33043e-05
4.34967e-05
4.49274e-05
4.23891e-05
3.9065e-05
3.65592e-05
3.66669e-05
4.16982e-05
4.95674e-05
4.15851e-05
3.76132e-05
3.7985e-05
3.94218e-05
3.72733e-05
2.7108e-05
1.45325e-05
6.65925e-06
3.33926e-06
1.81503e-06
1.12806e-06
8.63546e-07
6.81762e-07
6.18146e-07
5.289e-07
4.24485e-07
3.37455e-07
2.79855e-07
2.498e-07
2.52457e-07
3.62345e-07
6.65414e-07
9.47357e-07
2.81553e-06
3.37248e-06
4.0804e-06
7.85649e-06
7.37859e-06
8.98095e-06
1.01172e-05
1.08348e-05
1.32206e-05
1.28683e-05
2.51279e-05
2.46733e-05
1.19864e-05
1.20887e-05
1.12756e-05
9.97969e-06
9.30741e-06
1.05881e-05
1.07659e-05
1.24675e-05
2.5823e-05
2.9886e-05
3.46401e-05
3.81021e-05
4.07627e-05
4.29299e-05
4.33132e-05
4.34192e-05
4.34502e-05
4.37432e-05
4.33678e-05
4.07185e-05
3.92292e-05
3.7896e-05
3.6825e-05
3.63016e-05
3.23803e-05
1.27988e-09
2.822e-06
1.71929e-05
3.84998e-05
2.53771e-05
2.17123e-05
1.24038e-05
1.16481e-05
7.26305e-06
1.86719e-07
1.68754e-07
6.02743e-09
8.45886e-08
2.84637e-05
2.69073e-05
4.96031e-06
1.5061e-06
3.14552e-06
3.71461e-05
7.51178e-05
3.79122e-05
3.90585e-05
5.4925e-05
4.6093e-05
1.69868e-05
7.87249e-06
6.88465e-06
8.38747e-06
1.2194e-05
1.70268e-05
2.3946e-05
3.49137e-05
4.32443e-05
4.46693e-05
4.3705e-05
4.2114e-05
4.03114e-05
3.92913e-05
3.99748e-05
4.03538e-05
3.8107e-05
3.69562e-05
3.7904e-05
3.84099e-05
3.51604e-05
2.44131e-05
1.26381e-05
5.83977e-06
3.09897e-06
1.755e-06
1.01601e-06
7.57828e-07
5.83039e-07
5.50612e-07
4.88609e-07
4.01083e-07
3.25118e-07
2.77238e-07
2.56432e-07
2.87819e-07
4.33374e-07
7.54446e-07
1.02586e-06
2.93809e-06
3.70242e-06
4.35993e-06
6.73212e-06
7.6443e-06
9.18488e-06
1.0439e-05
1.13677e-05
1.34973e-05
3.21563e-05
2.54972e-05
2.49648e-05
2.71127e-05
1.22852e-05
1.14179e-05
1.01646e-05
1.7259e-05
1.07228e-05
1.08089e-05
1.26251e-05
2.60171e-05
4.34937e-05
3.4746e-05
3.81688e-05
4.08067e-05
4.28539e-05
4.32937e-05
4.34044e-05
4.3414e-05
6.75446e-05
6.74018e-05
4.06408e-05
3.91742e-05
3.7833e-05
3.67633e-05
5.87244e-05
3.23123e-05
3.07466e-09
5.40088e-06
2.07242e-05
2.68413e-05
2.12472e-05
1.47516e-05
7.57906e-06
2.89287e-06
4.84616e-07
2.71546e-08
1.77371e-09
1.72073e-09
2.48624e-08
1.79679e-05
7.53951e-06
9.74144e-06
9.24979e-07
1.37526e-06
1.7408e-05
3.02166e-05
2.69781e-05
3.9999e-05
5.51219e-05
3.85612e-05
1.42495e-05
2.16891e-06
6.34796e-06
7.78399e-06
1.12959e-05
1.6931e-05
2.44682e-05
3.47559e-05
4.18792e-05
4.34678e-05
4.35596e-05
5.12746e-05
4.30943e-05
5.56328e-05
3.9917e-05
3.84872e-05
3.72732e-05
3.67604e-05
3.72585e-05
3.64735e-05
3.01677e-05
1.87515e-05
1.03091e-05
4.85503e-06
2.69126e-06
1.5478e-06
9.0577e-07
6.11306e-07
4.53973e-08
4.74702e-07
4.44952e-07
3.74168e-07
3.09171e-07
2.75406e-07
2.77928e-07
3.46476e-07
5.38365e-07
7.50244e-07
1.1396e-06
3.22471e-06
4.17274e-06
4.78633e-06
7.22744e-06
8.07771e-06
9.46264e-06
1.08839e-05
2.56984e-05
2.48151e-05
2.47177e-05
2.60803e-05
2.53982e-05
1.28169e-05
1.25865e-05
1.16309e-05
1.04388e-05
9.99949e-06
1.09357e-05
1.08694e-05
1.2878e-05
2.62742e-05
3.0548e-05
3.49115e-05
3.82668e-05
4.08725e-05
4.28064e-05
4.32685e-05
4.33821e-05
4.33591e-05
4.34628e-05
4.29662e-05
4.05216e-05
3.90908e-05
3.77379e-05
3.66701e-05
3.56754e-05
3.22065e-05
2.09307e-09
1.18178e-05
5.06247e-06
3.25422e-05
1.91224e-05
1.01291e-05
3.96216e-06
8.67909e-07
7.44375e-08
2.81763e-09
3.28785e-09
1.69557e-10
2.21018e-10
6.61967e-06
1.52857e-05
2.08563e-06
4.64059e-07
9.09771e-07
6.88644e-06
1.43418e-05
2.40776e-05
4.39986e-05
5.28035e-05
3.07559e-05
1.2592e-05
6.83766e-06
6.48921e-06
7.44974e-06
9.9531e-06
1.53124e-05
2.2804e-05
3.26025e-05
3.9158e-05
4.09002e-05
4.12014e-05
4.11188e-05
4.07153e-05
3.97253e-05
3.84637e-05
4.59863e-05
3.64406e-05
3.53921e-05
3.50719e-05
3.17825e-05
2.56277e-05
1.41979e-05
6.81994e-06
3.56023e-06
2.21333e-06
1.28813e-06
8.00118e-07
6.1437e-07
5.27655e-07
4.53538e-07
4.13412e-07
3.49818e-07
2.9317e-07
2.79801e-07
3.63535e-07
4.655e-07
6.76167e-07
8.81735e-07
1.43474e-06
3.396e-06
4.41213e-06
7.55956e-06
7.89403e-06
8.72264e-06
1.81688e-05
1.14293e-05
1.24599e-05
2.56894e-05
2.6074e-05
2.68253e-05
2.5957e-05
1.34611e-05
1.29691e-05
1.191e-05
1.07841e-05
1.0547e-05
1.12085e-05
2.32256e-05
1.32366e-05
3.72993e-05
3.1031e-05
3.5125e-05
3.83952e-05
4.096e-05
4.2749e-05
4.32386e-05
4.33524e-05
4.32866e-05
4.32439e-05
4.2672e-05
4.03695e-05
3.89777e-05
3.76113e-05
3.6547e-05
3.52054e-05
3.20719e-05
7.41095e-10
8.14065e-06
3.08729e-05
2.72096e-05
1.22015e-05
5.71491e-06
1.47385e-06
3.00597e-06
9.10564e-09
4.06199e-10
1.5722e-10
4.00175e-10
2.59264e-09
1.14897e-06
2.04084e-06
6.61034e-08
1.30386e-07
1.48339e-07
1.50453e-06
1.22102e-05
2.87575e-05
5.15555e-05
5.04072e-05
2.29255e-05
1.03604e-05
6.86406e-06
6.41295e-06
7.12212e-06
8.68485e-06
1.31051e-05
1.98679e-05
2.89438e-05
3.34958e-05
3.7304e-05
3.79754e-05
3.81337e-05
3.79169e-05
3.73532e-05
3.62855e-05
3.28986e-05
3.24047e-05
2.91029e-05
4.42091e-05
2.7229e-05
1.8794e-05
1.00627e-05
4.72474e-06
2.79568e-06
1.85348e-06
4.69042e-07
7.3253e-07
5.97863e-07
7.41246e-08
4.15739e-07
3.8419e-07
3.30698e-07
2.97458e-07
3.63857e-07
4.51736e-07
6.34443e-07
8.35679e-07
1.14861e-06
1.84378e-06
4.19881e-06
5.17428e-06
8.52706e-06
8.7223e-06
9.59069e-06
1.06618e-05
1.20687e-05
1.31673e-05
2.67466e-05
2.73554e-05
2.76528e-05
2.6627e-05
1.40672e-05
1.34103e-05
1.22528e-05
1.11911e-05
1.10034e-05
1.15347e-05
2.47139e-05
2.45137e-05
2.75439e-05
3.1452e-05
3.53818e-05
3.85511e-05
4.10535e-05
4.27107e-05
4.32044e-05
4.3315e-05
4.31972e-05
4.30418e-05
6.60773e-05
4.0188e-05
3.88059e-05
3.74546e-05
3.63943e-05
3.48184e-05
3.1912e-05
1.39346e-10
4.34989e-06
2.6052e-05
1.56316e-05
5.61433e-06
2.27204e-06
4.18027e-06
9.37998e-07
2.32656e-08
3.83886e-10
3.05837e-10
1.52575e-09
4.2406e-09
2.32571e-07
3.85482e-07
3.23427e-07
7.70991e-07
2.05638e-06
5.80889e-06
1.60918e-05
5.4408e-05
5.58555e-05
3.76458e-05
1.74117e-05
9.17689e-06
3.61226e-06
4.00033e-06
6.58293e-06
6.52391e-06
1.04597e-05
1.57722e-05
2.23305e-05
2.84264e-05
3.11089e-05
3.2369e-05
3.30734e-05
3.49401e-05
3.29282e-05
3.1642e-05
2.82315e-05
4.00254e-05
2.75417e-05
2.71591e-05
2.16934e-05
1.4674e-05
6.33245e-06
2.94561e-06
2.37916e-06
1.65937e-06
1.08456e-06
7.5408e-07
5.47644e-07
1.07875e-07
3.89628e-07
3.76077e-07
3.68306e-07
3.77143e-07
4.58857e-07
6.19127e-07
8.55164e-07
1.16562e-06
1.62084e-06
4.50184e-06
5.39461e-06
7.79313e-06
7.94157e-06
9.69501e-06
1.06389e-05
1.1516e-05
1.27621e-05
1.38323e-05
2.78985e-05
2.85402e-05
2.85672e-05
2.73897e-05
2.60406e-05
1.3904e-05
1.26615e-05
1.16471e-05
2.41868e-05
1.19096e-05
1.20798e-05
2.54636e-05
2.84419e-05
3.18397e-05
3.56785e-05
3.8733e-05
5.5946e-05
4.25999e-05
4.30648e-05
4.32697e-05
4.30914e-05
4.28355e-05
4.21218e-05
3.99787e-05
3.86027e-05
3.72681e-05
3.62119e-05
3.44791e-05
3.17291e-05
4.80258e-11
1.21632e-06
1.10566e-05
4.95829e-06
1.55903e-06
3.54492e-07
1.05597e-06
1.31022e-08
9.08235e-10
5.2886e-10
1.89097e-10
3.90341e-09
1.29953e-07
1.88511e-07
2.74993e-07
4.44305e-07
1.43495e-06
4.15094e-06
9.76475e-06
2.21208e-05
4.68077e-05
5.97101e-05
2.79389e-05
1.60077e-05
8.13003e-06
5.82978e-06
5.87176e-06
6.06968e-06
6.71065e-06
8.55768e-06
1.34526e-05
1.64687e-05
2.04601e-05
2.34188e-05
2.4986e-05
4.07027e-05
2.90109e-05
2.88958e-05
2.54836e-05
2.38549e-05
2.41537e-05
2.62236e-05
2.43824e-05
1.7874e-05
1.16091e-05
5.58184e-06
3.19681e-06
2.11838e-06
1.53838e-06
1.06192e-06
7.8039e-07
5.7275e-07
2.5009e-07
4.27814e-07
4.32284e-07
4.44908e-07
4.75079e-07
5.70472e-07
8.5208e-07
1.17879e-06
1.4635e-06
5.03477e-06
7.04393e-06
5.73742e-06
6.12708e-06
9.05321e-06
1.07857e-05
1.18192e-05
1.23742e-05
3.19215e-05
3.6135e-05
2.9134e-05
2.97643e-05
2.95341e-05
3.94087e-05
2.71482e-05
2.55783e-05
1.31451e-05
1.21333e-05
2.58738e-05
1.23314e-05
1.27193e-05
2.65153e-05
2.93053e-05
4.9023e-05
3.6011e-05
3.89378e-05
4.11344e-05
4.24429e-05
4.29107e-05
4.31485e-05
4.29719e-05
4.26197e-05
4.17114e-05
3.97456e-05
3.83695e-05
3.7053e-05
3.60031e-05
3.41699e-05
3.15249e-05
6.43245e-12
1.85894e-07
4.18722e-06
3.69199e-06
1.84287e-07
2.10133e-08
6.74903e-09
1.16964e-09
7.00815e-10
2.07088e-09
3.87166e-10
2.22759e-08
2.80829e-06
2.09626e-06
8.53003e-07
6.29867e-07
1.82056e-06
9.49201e-06
1.46297e-05
3.18947e-05
5.14278e-05
5.30903e-05
3.09267e-05
1.37339e-05
4.02443e-06
2.42219e-06
5.41682e-06
5.63881e-06
4.31765e-06
7.34934e-06
9.11837e-06
1.17495e-05
1.31166e-05
1.54087e-05
1.86727e-05
1.9554e-05
2.92632e-05
2.12855e-05
1.91776e-05
2.83056e-05
2.09902e-05
2.12665e-05
1.86001e-05
1.40376e-05
9.05724e-06
4.88804e-06
3.1226e-06
1.91994e-06
1.41232e-06
1.03253e-06
8.19323e-07
6.63941e-07
5.51454e-07
4.80057e-07
5.62503e-07
5.33141e-07
5.72021e-07
7.85138e-07
1.38595e-06
1.82928e-06
4.57065e-06
8.30231e-06
5.95766e-06
8.38106e-06
9.94837e-06
1.03099e-05
1.19846e-05
1.30777e-05
2.92166e-05
1.47145e-05
2.80008e-05
3.05061e-05
3.09947e-05
3.05435e-05
2.93534e-05
2.82641e-05
2.65912e-05
1.37126e-05
2.83276e-05
1.26701e-05
3.00783e-05
3.26087e-05
2.75698e-05
3.01759e-05
4.97177e-05
3.63952e-05
3.91606e-05
4.11525e-05
4.22844e-05
4.2767e-05
4.29834e-05
4.28395e-05
4.23105e-05
4.13335e-05
3.94913e-05
3.8108e-05
3.6806e-05
3.57771e-05
3.38822e-05
3.13006e-05
3.01316e-13
1.0624e-08
1.78302e-07
7.54504e-07
8.95039e-09
9.9184e-10
2.36542e-09
6.2501e-10
1.68247e-10
8.00214e-10
5.97205e-08
8.85259e-08
1.31121e-05
2.0497e-05
5.85741e-06
4.58796e-06
7.45884e-06
1.81807e-05
3.89976e-05
6.2728e-05
7.43543e-05
4.87957e-05
2.93984e-05
1.35436e-05
7.29973e-06
2.9604e-06
5.30367e-06
5.43593e-06
5.76771e-06
6.57263e-06
7.51972e-06
8.23359e-06
7.10266e-06
6.96025e-06
1.19235e-05
1.27502e-05
1.4025e-05
1.42808e-05
1.44418e-05
1.555e-05
1.66905e-05
1.66058e-05
1.41237e-05
1.02897e-05
6.60345e-06
4.15909e-06
2.74809e-06
1.72045e-06
1.30033e-06
1.0302e-06
8.79847e-07
7.85416e-07
7.30396e-07
6.44468e-07
6.82246e-07
7.27224e-07
1.07291e-06
2.00805e-06
1.85665e-06
2.5944e-06
2.98289e-06
6.31269e-06
6.80872e-06
6.83597e-06
1.52059e-05
2.12357e-05
1.32471e-05
1.44181e-05
3.45245e-05
2.79883e-05
3.00451e-05
3.19259e-05
3.20991e-05
3.15898e-05
3.05132e-05
2.93755e-05
3.89951e-05
3.54394e-05
1.33619e-05
1.34322e-05
1.36059e-05
2.52223e-05
2.85727e-05
3.10631e-05
3.36811e-05
3.68838e-05
3.93977e-05
4.1184e-05
4.21238e-05
4.26096e-05
4.2797e-05
4.27125e-05
4.20028e-05
4.09662e-05
3.92274e-05
3.78197e-05
3.6525e-05
3.55267e-05
3.36084e-05
3.10568e-05
1.25813e-14
1.31524e-09
7.88871e-08
6.06926e-08
6.79329e-10
3.45805e-10
7.12567e-10
1.33375e-10
3.27273e-10
5.40596e-09
4.32173e-08
4.68204e-07
5.37448e-05
6.36866e-05
1.81581e-05
1.0191e-05
6.22493e-06
2.46974e-05
4.50642e-05
5.60315e-05
5.50716e-05
4.3457e-05
2.49791e-05
1.26683e-05
7.43161e-06
5.62928e-06
4.97476e-06
5.10735e-06
5.27119e-06
5.56116e-06
5.96626e-06
5.90118e-06
5.57042e-06
6.20102e-06
7.42897e-06
6.5673e-06
8.33226e-06
8.26901e-06
9.79964e-06
1.20273e-05
1.10432e-05
1.19505e-05
1.00464e-05
6.58475e-06
4.88383e-06
3.41228e-06
2.41447e-06
1.62572e-06
1.4686e-06
1.08076e-06
1.01174e-06
9.5466e-07
9.10699e-07
8.71578e-07
1.33937e-06
1.08002e-06
2.17401e-06
1.78101e-06
2.63545e-06
3.42252e-06
7.47156e-06
1.01562e-05
7.7112e-06
1.11034e-05
1.13214e-05
1.34282e-05
1.45655e-05
1.57674e-05
2.80943e-05
4.18989e-05
3.19655e-05
3.31242e-05
3.31637e-05
3.25727e-05
3.16529e-05
3.04389e-05
2.88716e-05
2.66826e-05
1.40776e-05
3.49762e-05
2.54943e-05
2.676e-05
2.96049e-05
3.18944e-05
3.4538e-05
3.73328e-05
3.96496e-05
4.12139e-05
4.19998e-05
6.305e-05
4.25962e-05
4.25576e-05
4.17097e-05
4.06003e-05
3.89554e-05
3.75137e-05
3.62193e-05
3.52541e-05
3.32476e-05
3.07986e-05
6.41725e-12
8.07921e-11
2.47799e-09
3.04606e-09
1.77085e-09
2.91911e-10
8.72303e-09
5.36016e-09
1.5288e-08
3.49375e-08
1.3513e-07
3.68988e-06
3.48193e-05
6.51471e-05
3.18833e-05
1.4992e-05
1.53851e-05
2.85531e-05
5.90841e-05
7.06055e-05
5.09161e-05
3.38475e-05
2.15806e-05
1.09404e-05
7.22404e-06
3.15561e-06
2.26871e-06
4.68249e-06
4.61447e-06
2.86385e-06
4.75165e-06
4.78651e-06
4.63765e-06
4.82007e-06
5.23801e-06
5.74357e-06
6.02735e-06
5.81283e-06
6.68797e-06
6.64832e-06
7.32884e-06
7.24652e-06
6.03915e-06
4.5211e-06
3.54255e-06
2.82787e-06
2.07621e-06
1.7495e-06
1.48972e-06
1.22647e-06
2.00344e-06
2.03188e-06
2.00536e-06
1.08616e-06
1.32104e-06
1.57884e-06
1.90741e-06
2.5909e-06
3.46778e-06
8.23788e-06
7.86359e-06
9.32768e-06
7.94623e-06
1.07422e-05
1.29786e-05
1.50344e-05
3.76768e-05
4.12953e-05
3.07074e-05
3.2109e-05
3.35975e-05
3.43144e-05
3.42358e-05
3.35763e-05
3.26564e-05
3.15227e-05
3.00855e-05
2.81629e-05
2.59766e-05
2.64301e-05
2.69119e-05
2.81661e-05
3.06532e-05
3.2746e-05
3.52497e-05
3.78006e-05
3.99085e-05
4.12398e-05
4.18698e-05
4.21074e-05
4.23956e-05
6.55231e-05
4.14367e-05
4.02224e-05
3.86811e-05
3.71946e-05
3.58883e-05
3.49638e-05
3.28472e-05
3.05263e-05
7.85514e-12
8.6088e-12
1.83273e-10
4.01248e-09
3.17706e-08
9.27584e-09
1.60762e-07
9.7413e-08
1.03048e-06
2.43443e-06
3.86949e-06
9.47757e-06
3.84318e-05
6.41666e-05
3.52645e-05
1.8165e-05
1.97809e-05
3.37847e-05
5.90461e-05
5.80907e-05
4.54019e-05
2.57391e-05
1.27864e-05
9.25576e-06
6.84176e-06
4.06839e-06
4.92877e-06
4.76455e-06
1.83183e-06
4.20658e-06
2.11201e-06
4.35946e-06
4.48515e-06
4.49011e-06
4.48166e-06
4.4851e-06
4.6118e-06
4.56083e-06
4.56111e-06
4.36606e-06
4.32696e-06
5.12825e-06
4.18818e-06
2.99461e-06
2.75732e-06
2.39046e-06
2.03268e-06
3.30519e-06
1.98333e-06
1.58185e-06
3.08669e-06
1.62302e-06
1.69925e-06
1.78404e-06
4.05415e-06
4.73713e-06
2.71419e-06
7.57472e-06
8.6634e-06
8.85875e-06
8.98443e-06
1.27472e-05
1.70394e-05
1.24066e-05
2.95469e-05
1.65645e-05
4.1254e-05
3.17462e-05
3.29477e-05
3.39993e-05
3.4993e-05
3.54449e-05
3.52584e-05
3.45887e-05
3.365e-05
3.25239e-05
3.12162e-05
2.95457e-05
3.83306e-05
2.79416e-05
2.83258e-05
4.11684e-05
3.16788e-05
3.36093e-05
3.59335e-05
3.82129e-05
4.01512e-05
4.1263e-05
4.17224e-05
4.1862e-05
6.44969e-05
4.19712e-05
4.1151e-05
3.98355e-05
3.83936e-05
3.68542e-05
3.55368e-05
3.45565e-05
3.24431e-05
3.02333e-05
7.02455e-12
7.82328e-11
2.95105e-09
1.55508e-08
2.2792e-06
1.92241e-06
2.39618e-06
2.8951e-06
6.47144e-06
3.47006e-05
1.7268e-05
3.27892e-05
4.47984e-05
9.32734e-05
4.70694e-05
2.33309e-05
2.86574e-05
5.65457e-05
8.64724e-05
6.68074e-05
3.5986e-05
2.11581e-05
9.58396e-06
8.73044e-06
6.76288e-06
5.50863e-06
4.83757e-06
4.88008e-06
4.29032e-06
4.20291e-06
3.8009e-06
4.13865e-06
4.00959e-06
1.86072e-06
3.90643e-06
3.87218e-06
3.72903e-06
3.57845e-06
2.60434e-06
3.583e-06
3.57003e-06
3.28978e-06
2.86116e-06
2.26055e-06
2.29956e-06
2.35824e-06
2.70816e-06
3.11364e-06
2.6686e-06
2.52824e-06
2.98896e-06
3.31184e-06
3.16922e-06
5.41613e-06
6.36313e-06
3.20012e-06
3.63803e-06
1.38134e-05
8.87208e-06
9.36863e-06
8.51746e-06
9.59169e-06
2.02868e-05
1.41361e-05
1.62733e-05
2.95946e-05
3.16561e-05
3.37511e-05
3.46276e-05
3.55357e-05
3.61721e-05
3.64034e-05
3.61422e-05
3.54935e-05
3.46311e-05
3.34967e-05
3.23213e-05
3.08807e-05
2.88588e-05
2.93425e-05
2.96245e-05
3.06558e-05
3.26247e-05
5.02467e-05
3.66101e-05
5.16154e-05
5.51533e-05
4.1277e-05
4.15933e-05
4.16168e-05
4.17949e-05
4.16032e-05
4.08574e-05
3.9458e-05
3.80893e-05
3.64935e-05
3.51789e-05
3.41457e-05
3.20348e-05
2.9916e-05
5.0674e-09
3.35716e-08
1.39552e-07
6.82121e-07
8.66287e-05
2.25932e-05
1.06493e-05
2.42385e-05
4.56573e-05
3.90954e-05
4.81193e-05
4.46919e-05
4.70273e-05
8.98113e-05
6.46887e-05
3.14262e-05
4.13247e-05
7.85596e-05
6.32203e-05
5.77522e-05
2.83822e-05
1.62472e-05
1.26782e-05
8.64865e-06
6.58635e-06
5.17373e-06
3.58574e-06
4.89225e-06
4.6235e-06
4.29243e-06
3.95271e-06
3.77015e-06
2.40945e-06
3.67834e-06
2.0666e-06
3.26512e-06
3.08972e-06
1.34386e-06
2.01764e-06
3.02499e-06
2.92e-06
2.57241e-06
2.1989e-06
1.8303e-06
1.94068e-06
2.6782e-06
3.47485e-06
4.30567e-06
4.65279e-06
6.48044e-06
6.84117e-06
5.31386e-06
5.98633e-06
6.51274e-06
7.69444e-06
1.3654e-05
8.79632e-06
9.8569e-06
9.33433e-06
1.39587e-05
1.34362e-05
1.25495e-05
1.40875e-05
1.58477e-05
2.85865e-05
3.17307e-05
3.3675e-05
3.53129e-05
5.09471e-05
3.67434e-05
3.72568e-05
3.73691e-05
3.70162e-05
3.63246e-05
3.55035e-05
3.44672e-05
3.32986e-05
3.21423e-05
4.25408e-05
3.06979e-05
3.09283e-05
3.18785e-05
3.35669e-05
3.53117e-05
3.72666e-05
3.89194e-05
4.03124e-05
4.10752e-05
4.14811e-05
4.13939e-05
6.38945e-05
4.12337e-05
4.04916e-05
3.90702e-05
3.76817e-05
3.61019e-05
3.48035e-05
3.37336e-05
3.16218e-05
2.95841e-05
3.7458e-05
3.2981e-06
4.12127e-06
3.03036e-05
9.83099e-05
5.09194e-05
4.08915e-05
7.56941e-05
7.04403e-05
5.31334e-05
5.3918e-05
7.53209e-05
5.73143e-05
6.01784e-05
4.90271e-05
5.00706e-05
5.11562e-05
5.93868e-05
6.15209e-05
4.69823e-05
3.31674e-05
2.20037e-05
1.23624e-05
1.15799e-05
6.62697e-06
4.49571e-06
4.96444e-06
5.09101e-06
4.90403e-06
4.47469e-06
3.43247e-06
3.03154e-06
3.86166e-06
3.74106e-06
3.46615e-06
1.72834e-06
1.65705e-06
2.94833e-06
2.86756e-06
2.11219e-06
2.2696e-06
1.88006e-06
1.77347e-06
1.75846e-06
3.8938e-06
3.52589e-06
9.15055e-06
6.64292e-06
8.59794e-06
1.38159e-05
1.04091e-05
9.17016e-06
9.02268e-06
9.39469e-06
1.00913e-05
1.00844e-05
9.42333e-06
1.62837e-05
1.44606e-05
1.42234e-05
2.30157e-05
2.78109e-05
1.63722e-05
2.78737e-05
3.14417e-05
3.38245e-05
3.54995e-05
3.67342e-05
3.74865e-05
3.80796e-05
3.83434e-05
3.8266e-05
3.79177e-05
3.72817e-05
4.89374e-05
3.55372e-05
3.4446e-05
4.97767e-05
3.22622e-05
4.62516e-05
3.24035e-05
3.31301e-05
3.46765e-05
3.62282e-05
3.79271e-05
5.32425e-05
4.03608e-05
4.07751e-05
4.12016e-05
6.21698e-05
4.10463e-05
4.08059e-05
3.99831e-05
3.8596e-05
3.71766e-05
3.56072e-05
3.43374e-05
3.32476e-05
3.11242e-05
2.91677e-05
6.57584e-05
3.54906e-05
2.61547e-05
3.9071e-05
6.1266e-05
5.21807e-05
6.30167e-05
6.51204e-05
6.51285e-05
6.42015e-05
8.89906e-05
8.83194e-05
8.92586e-05
6.38622e-05
8.03451e-05
5.51622e-05
5.87028e-05
8.56888e-05
7.31928e-05
4.11054e-05
2.69464e-05
1.97747e-05
1.37681e-05
9.03109e-06
7.10776e-06
6.98237e-06
7.39401e-06
6.12144e-06
8.28649e-06
5.40072e-06
4.78852e-06
4.78869e-06
4.53766e-06
4.25437e-06
4.11895e-06
3.60895e-06
3.3509e-06
2.97482e-06
2.11995e-06
2.13941e-06
1.73468e-06
1.4172e-06
1.9397e-06
2.33479e-06
3.52816e-06
5.4429e-06
1.21015e-05
1.62756e-05
1.57214e-05
1.26084e-05
8.3362e-06
1.32064e-05
1.39457e-05
1.45889e-05
9.13073e-06
9.36056e-06
1.46601e-05
1.85171e-05
1.27486e-05
2.64499e-05
3.13353e-05
3.86352e-05
2.8722e-05
3.1311e-05
3.38697e-05
3.55616e-05
3.68071e-05
3.78058e-05
3.86385e-05
3.90256e-05
3.91096e-05
3.89848e-05
3.85925e-05
3.80845e-05
3.74924e-05
3.66037e-05
3.57376e-05
3.49259e-05
3.40025e-05
3.38565e-05
3.38766e-05
3.45146e-05
3.5813e-05
3.72464e-05
3.84718e-05
3.97249e-05
4.03952e-05
4.04763e-05
4.06908e-05
4.05445e-05
4.06027e-05
4.01776e-05
3.93864e-05
3.80298e-05
3.65827e-05
3.5002e-05
3.37691e-05
3.26215e-05
3.05522e-05
2.86625e-05
9.46104e-05
4.37021e-05
6.43347e-05
5.65417e-05
5.79085e-05
5.85547e-05
6.59464e-05
6.47566e-05
6.59411e-05
6.43625e-05
6.71717e-05
6.04455e-05
6.41716e-05
8.8937e-05
8.58443e-05
8.42239e-05
6.00628e-05
5.48837e-05
4.91997e-05
2.64973e-05
3.53065e-05
1.9184e-05
1.52253e-05
9.41628e-06
1.16289e-05
7.36923e-06
7.75121e-06
7.90738e-06
1.43052e-05
7.02213e-06
9.96327e-06
9.13592e-06
5.48426e-06
4.40654e-06
6.58322e-06
4.3796e-06
3.91921e-06
3.3734e-06
2.63728e-06
2.29843e-06
1.9835e-06
1.9732e-06
2.51192e-06
5.66002e-06
5.47441e-06
1.32546e-05
1.80877e-05
1.45735e-05
1.18913e-05
1.08076e-05
1.03933e-05
1.56825e-05
1.02122e-05
1.68981e-05
1.1291e-05
1.92725e-05
2.02766e-05
2.53243e-05
1.56571e-05
1.70585e-05
1.8362e-05
2.94121e-05
3.16526e-05
3.36879e-05
4.79114e-05
3.64215e-05
3.744e-05
3.84287e-05
5.32558e-05
5.37161e-05
3.96798e-05
3.949e-05
3.91835e-05
3.8691e-05
3.81724e-05
3.76015e-05
3.68093e-05
3.61765e-05
3.5555e-05
3.53639e-05
3.53432e-05
3.58127e-05
4.91693e-05
3.80772e-05
3.89612e-05
3.97186e-05
4.03453e-05
4.01773e-05
4.01398e-05
6.13501e-05
3.99035e-05
3.9633e-05
3.87495e-05
3.74872e-05
3.59739e-05
3.43871e-05
3.3165e-05
3.19696e-05
2.99605e-05
2.81404e-05
0.000102833
7.67964e-05
7.65427e-05
6.93554e-05
5.94729e-05
6.10689e-05
6.6027e-05
7.09729e-05
6.41851e-05
5.8355e-05
4.55932e-05
4.56462e-05
5.58217e-05
5.90865e-05
8.15278e-05
5.7615e-05
5.16117e-05
5.84166e-05
3.6635e-05
2.80475e-05
2.18333e-05
2.90319e-05
2.51379e-05
1.87769e-05
1.60184e-05
9.09986e-06
9.37769e-06
1.05905e-05
1.18967e-05
1.07763e-05
1.98151e-05
1.03391e-05
8.88191e-06
1.23706e-05
7.12554e-06
6.16364e-06
7.57105e-06
3.67583e-06
2.94815e-06
2.57363e-06
2.61829e-06
4.76337e-06
4.0541e-06
5.95697e-06
2.13008e-05
2.22448e-05
2.49884e-05
1.36525e-05
1.43879e-05
1.44268e-05
1.3789e-05
2.45534e-05
2.44706e-05
1.36346e-05
1.426e-05
1.47993e-05
1.54651e-05
1.69079e-05
1.82174e-05
2.84648e-05
3.01102e-05
4.78152e-05
3.33944e-05
4.76425e-05
3.6119e-05
3.66777e-05
3.73657e-05
3.82795e-05
3.91418e-05
3.96667e-05
5.54308e-05
3.95806e-05
3.92299e-05
3.90196e-05
3.87265e-05
3.82207e-05
3.7778e-05
3.71944e-05
3.67487e-05
4.98596e-05
3.65563e-05
3.68948e-05
3.78312e-05
3.86225e-05
3.92586e-05
3.96841e-05
3.99188e-05
3.98105e-05
3.96756e-05
3.93714e-05
3.91911e-05
3.90934e-05
3.80271e-05
3.68505e-05
3.53071e-05
3.37435e-05
3.25093e-05
3.13041e-05
2.93435e-05
2.76087e-05
0.000105135
9.48781e-05
9.74214e-05
8.67944e-05
8.1669e-05
8.95424e-05
8.61409e-05
7.37657e-05
6.50166e-05
6.58286e-05
4.06936e-05
5.51461e-05
4.24296e-05
5.6835e-05
4.903e-05
4.51617e-05
3.91427e-05
3.3144e-05
2.96243e-05
2.73045e-05
2.34992e-05
3.58779e-05
1.98628e-05
1.61166e-05
1.24535e-05
1.12611e-05
1.01367e-05
2.62664e-05
1.74046e-05
3.0003e-05
1.8082e-05
1.79329e-05
2.8156e-05
1.20253e-05
2.0077e-05
7.52387e-06
5.23636e-06
4.2812e-06
3.89252e-06
3.32252e-06
3.6603e-06
4.91051e-06
9.21395e-06
2.45391e-05
2.16929e-05
1.5129e-05
2.6239e-05
2.88009e-05
2.96804e-05
2.93996e-05
3.90967e-05
3.79355e-05
3.73135e-05
1.67232e-05
3.85574e-05
1.77072e-05
2.73428e-05
4.32471e-05
2.9975e-05
3.09036e-05
3.18416e-05
3.27428e-05
3.39266e-05
3.53271e-05
3.59483e-05
3.63725e-05
3.68355e-05
3.77483e-05
3.86723e-05
3.93643e-05
3.96364e-05
3.96769e-05
3.92542e-05
3.90221e-05
3.88954e-05
3.87429e-05
5.16579e-05
3.80131e-05
3.77684e-05
3.76676e-05
3.76377e-05
3.79492e-05
5.14174e-05
3.90669e-05
3.92376e-05
3.96059e-05
3.9548e-05
3.91785e-05
3.92334e-05
3.88469e-05
3.84994e-05
3.83469e-05
3.7304e-05
3.60235e-05
3.45911e-05
3.3071e-05
3.178e-05
3.06035e-05
2.87101e-05
2.70608e-05
0.000105577
0.000101085
0.000103059
0.000105951
0.000108748
0.000113399
0.000112611
9.88018e-05
7.5347e-05
5.94019e-05
5.61686e-05
2.93634e-05
2.50634e-05
2.78376e-05
3.10833e-05
2.38552e-05
2.11665e-05
3.44282e-05
2.25242e-05
2.47403e-05
2.54018e-05
2.67598e-05
2.48416e-05
2.05432e-05
1.70134e-05
2.72814e-05
1.62051e-05
1.96008e-05
2.32629e-05
2.43869e-05
2.51549e-05
2.413e-05
2.22053e-05
1.95242e-05
1.54867e-05
8.66998e-06
6.11887e-06
1.16504e-05
4.87075e-06
5.2601e-06
6.77483e-06
1.0559e-05
2.69903e-05
2.44533e-05
1.81948e-05
2.8979e-05
4.8412e-05
3.33867e-05
3.3776e-05
3.34068e-05
3.2624e-05
3.19004e-05
3.11519e-05
3.04454e-05
3.02612e-05
3.03412e-05
3.08385e-05
3.13185e-05
3.18287e-05
3.20207e-05
3.23305e-05
3.29416e-05
3.36662e-05
3.47139e-05
5.15064e-05
3.54032e-05
3.61917e-05
3.71484e-05
3.79922e-05
3.86295e-05
3.89728e-05
3.89705e-05
3.87757e-05
3.89578e-05
3.88648e-05
3.88936e-05
3.87673e-05
3.84889e-05
3.83583e-05
3.84053e-05
3.8462e-05
3.86651e-05
3.89815e-05
3.9128e-05
3.91757e-05
3.89971e-05
3.91214e-05
5.79119e-05
3.85207e-05
3.81969e-05
3.78843e-05
3.75035e-05
3.65535e-05
3.52291e-05
3.37816e-05
3.23718e-05
3.10274e-05
2.98856e-05
2.80595e-05
2.64998e-05
0.000104953
0.000100712
9.94034e-05
0.000104234
0.000106898
0.000104618
0.000107066
0.000109976
9.39324e-05
6.84498e-05
5.04964e-05
2.84545e-05
2.0294e-05
2.6905e-05
2.13241e-05
2.13484e-05
2.3038e-05
2.05002e-05
3.50663e-05
2.51237e-05
4.38379e-05
3.18146e-05
3.04901e-05
2.49665e-05
3.79616e-05
3.68005e-05
2.13283e-05
4.94033e-05
3.06941e-05
3.40011e-05
3.45026e-05
3.14154e-05
4.63831e-05
2.65142e-05
2.08007e-05
1.45729e-05
1.6769e-05
6.71344e-06
7.10194e-06
1.6801e-05
1.20888e-05
2.87776e-05
2.60597e-05
3.02586e-05
3.09537e-05
3.37573e-05
3.49397e-05
3.55258e-05
3.5807e-05
3.56121e-05
4.86135e-05
3.45928e-05
3.38288e-05
4.82126e-05
4.7754e-05
3.23692e-05
3.20743e-05
3.21892e-05
4.66436e-05
3.23431e-05
3.19917e-05
3.22119e-05
3.26483e-05
3.34926e-05
3.41307e-05
3.44196e-05
3.51691e-05
3.6149e-05
3.71177e-05
3.79759e-05
5.72743e-05
3.85141e-05
3.82796e-05
3.83509e-05
3.8648e-05
3.87835e-05
3.8716e-05
3.87205e-05
3.87228e-05
3.87614e-05
5.21861e-05
5.24158e-05
3.91552e-05
3.8984e-05
3.8877e-05
3.84904e-05
3.84089e-05
3.80718e-05
3.77903e-05
3.74428e-05
3.72253e-05
3.66607e-05
3.57628e-05
3.43899e-05
3.29875e-05
3.15741e-05
3.02691e-05
2.90647e-05
2.73744e-05
2.58693e-05
0.000103743
9.77654e-05
9.30202e-05
9.2374e-05
9.06646e-05
8.49342e-05
8.6604e-05
9.84722e-05
0.000101475
8.17249e-05
6.09976e-05
2.42724e-05
2.89471e-05
2.24982e-05
2.13082e-05
1.85304e-05
1.97384e-05
2.47774e-05
2.64384e-05
3.19465e-05
3.61643e-05
3.88293e-05
6.48961e-05
3.24332e-05
2.86703e-05
5.95789e-05
2.77888e-05
5.85818e-05
3.96663e-05
4.30474e-05
3.85874e-05
3.35496e-05
3.2212e-05
3.0457e-05
2.62321e-05
2.08923e-05
1.73664e-05
1.03736e-05
1.22681e-05
1.66916e-05
2.3782e-05
3.30081e-05
3.07283e-05
3.15262e-05
3.37771e-05
5.02626e-05
3.56094e-05
3.56608e-05
3.60453e-05
3.62575e-05
4.97451e-05
3.49978e-05
3.42927e-05
3.39764e-05
3.33306e-05
3.26141e-05
3.22467e-05
3.18706e-05
3.17263e-05
4.75416e-05
3.08633e-05
3.10863e-05
3.14909e-05
3.23192e-05
3.3051e-05
3.36852e-05
3.44327e-05
3.54837e-05
3.64246e-05
3.70556e-05
3.75327e-05
3.76628e-05
3.77186e-05
3.79308e-05
3.80436e-05
3.84736e-05
3.85752e-05
3.85543e-05
3.86632e-05
3.88195e-05
3.90777e-05
5.32107e-05
3.89592e-05
3.87706e-05
3.83164e-05
3.80879e-05
3.77239e-05
3.73299e-05
3.72188e-05
3.67122e-05
3.64148e-05
3.58441e-05
3.48396e-05
3.35359e-05
3.22034e-05
3.07587e-05
2.94903e-05
2.82517e-05
2.66765e-05
2.5197e-05
0.000102023
9.34376e-05
8.65395e-05
8.16684e-05
7.40993e-05
6.44769e-05
6.43587e-05
7.84052e-05
9.27698e-05
8.87103e-05
7.02417e-05
5.73447e-05
4.15937e-05
3.47277e-05
2.80351e-05
2.65705e-05
4.43224e-05
5.62131e-05
3.54303e-05
7.16266e-05
4.54061e-05
4.70406e-05
4.45441e-05
4.20082e-05
4.03471e-05
4.44088e-05
5.96172e-05
3.47021e-05
4.99283e-05
3.30011e-05
3.32819e-05
3.29927e-05
4.99254e-05
2.88142e-05
2.53101e-05
2.29833e-05
2.14654e-05
2.81419e-05
2.60448e-05
3.77662e-05
3.42977e-05
3.37047e-05
3.19251e-05
4.86899e-05
3.38972e-05
3.41725e-05
5.29783e-05
3.41861e-05
5.28712e-05
3.5101e-05
5.08136e-05
3.38013e-05
3.32801e-05
3.30508e-05
4.82927e-05
3.16868e-05
3.10369e-05
3.05114e-05
3.01912e-05
2.99227e-05
2.96254e-05
2.99859e-05
3.05116e-05
5.03238e-05
3.19629e-05
3.27632e-05
3.35301e-05
3.44947e-05
3.54973e-05
3.62945e-05
3.69553e-05
3.70037e-05
3.69611e-05
3.72079e-05
3.76303e-05
3.78177e-05
3.80565e-05
3.84018e-05
3.84829e-05
3.85912e-05
3.88049e-05
3.90173e-05
5.43419e-05
3.8063e-05
3.78417e-05
3.7285e-05
3.71943e-05
3.65841e-05
3.65115e-05
3.60934e-05
3.55854e-05
3.50876e-05
3.39575e-05
3.27012e-05
3.13355e-05
2.99462e-05
2.86833e-05
2.74616e-05
2.59331e-05
2.45136e-05
9.9653e-05
8.81357e-05
7.80982e-05
6.76649e-05
5.4716e-05
4.27194e-05
4.38296e-05
5.84293e-05
7.69539e-05
8.5035e-05
7.513e-05
6.37296e-05
5.6206e-05
5.16601e-05
4.18637e-05
6.77572e-05
4.03966e-05
4.40369e-05
7.81128e-05
4.98359e-05
5.36772e-05
5.1868e-05
5.01987e-05
7.56149e-05
4.43251e-05
3.32608e-05
2.7972e-05
3.24941e-05
5.91102e-05
3.45311e-05
3.22908e-05
3.24301e-05
3.32229e-05
3.18299e-05
2.6951e-05
3.58675e-05
2.2139e-05
2.55111e-05
2.93911e-05
4.85223e-05
3.45842e-05
4.82849e-05
3.25097e-05
5.10343e-05
5.19302e-05
3.14145e-05
3.1635e-05
3.20645e-05
3.24595e-05
5.20057e-05
3.21218e-05
3.14743e-05
3.12253e-05
3.10666e-05
3.05876e-05
2.98718e-05
2.92774e-05
2.88531e-05
2.85981e-05
2.85008e-05
2.85899e-05
2.89967e-05
2.95187e-05
3.03807e-05
3.10235e-05
3.17772e-05
3.26225e-05