/*--------------------------------*- C++ -*----------------------------------*\
  =========                 |
  \\      /  F ield         | OpenFOAM: The Open Source CFD Toolbox
   \\    /   O peration     | Website:  https://openfoam.org
    \\  /    A nd           | Version:  6
     \\/     M anipulation  |
\*---------------------------------------------------------------------------*/
FoamFile
{
    version     2.0;
    format      ascii;
    class       volScalarField;
    location    "0.1";
    object      H2;
}
// * * * * * * * * * * * * * * * * * * * * * * * * * * * * * * * * * * * * * //

dimensions      [0 0 0 0 0 0 0];

internalField   nonuniform List<scalar> 
8000
(
3.16917e-06
2.82403e-05
0.000153478
0.000549668
0.000881437
0.000592436
0.000282723
0.000110444
3.91212e-05
1.40166e-05
6.22798e-06
4.99194e-06
8.41506e-06
3.21061e-05
2.98346e-05
3.06776e-05
8.36835e-05
0.00153337
0.000189212
9.43761e-05
0.00010043
0.000146618
0.000357809
0.000873376
0.00132156
0.00151763
0.00156936
0.00154642
0.00150571
0.00171055
0.00152604
0.00108268
0.000781759
0.000557962
0.000420404
0.000342157
0.000311038
0.000333286
0.000455831
0.000608931
0.000504021
0.000457261
0.000503753
0.000635102
0.000833289
0.00108586
0.00131535
0.0014992
0.00161668
0.00215928
0.00170725
0.0018324
0.00180186
0.00180131
0.00179975
0.0017977
0.001796
0.00179668
0.00180136
0.00180864
0.00172969
0.00172647
0.00157172
0.0016103
0.00143705
0.0011586
0.00127505
0.00115546
0.0011351
0.00112009
0.00126733
0.00107581
0.00107999
0.00112502
0.00112866
0.00109049
0.00108963
0.00110162
0.00112091
0.00113015
0.00111467
0.00111239
0.00108874
0.00111804
0.0010596
0.000979998
0.000898675
0.000833162
0.000953703
0.000679582
0.000594485
0.000522403
0.000472318
0.000434621
0.000353159
0.000311829
0.00028613
0.000267265
0.000260712
0.000211793
3.09036e-06
3.05376e-05
0.000168916
0.000590397
0.00101408
0.00059546
0.000266914
0.000105035
3.62485e-05
1.27192e-05
5.79414e-06
5.45273e-06
1.19436e-05
8.49117e-05
6.74676e-05
3.99911e-05
5.63049e-05
0.000108236
0.000119671
0.000128173
0.000120299
0.000168538
0.000395132
0.000908818
0.0013422
0.00154486
0.00157631
0.00155009
0.0014895
0.00145156
0.0012298
0.00101717
0.000767994
0.000582152
0.000473828
0.000405263
0.000370521
0.00038658
0.000516808
0.00107817
0.000604846
0.000504116
0.000540938
0.000670445
0.0008646
0.00111174
0.00133092
0.00150579
0.00161501
0.00168263
0.00179872
0.00180064
0.00180212
0.00180086
0.00179945
0.00179767
0.00179652
0.00179788
0.00180271
0.00180989
0.00173
0.00172479
0.00156564
0.00162174
0.00133387
0.00115572
0.00127224
0.00115351
0.00113343
0.00111768
0.00110823
0.00107315
0.00107909
0.00112269
0.00112673
0.00108974
0.00108814
0.0011005
0.00111959
0.0011301
0.00111364
0.00111193
0.00108746
0.00111671
0.0010596
0.000978872
0.000897529
0.000832252
0.000776934
0.00067853
0.000593897
0.000521785
0.000471822
0.000434471
0.000352675
0.000311503
0.000285846
0.000266997
0.000260775
0.000211549
3.51553e-06
4.22713e-05
0.00025803
0.000847968
0.000619786
0.000398835
0.000187619
0.00015038
7.71255e-05
1.32358e-05
1.45064e-05
5.86899e-06
1.60394e-05
0.000171812
0.000208891
6.8217e-05
4.62629e-05
5.92415e-05
0.000196867
0.000970476
0.000206718
0.000227025
0.000479983
0.000981502
0.00138111
0.00159156
0.00160065
0.0015581
0.00148122
0.00134477
0.00119139
0.000991101
0.000779212
0.000641267
0.000595164
0.000564824
0.000508954
0.000507672
0.000547812
0.000608027
0.000555612
0.000550204
0.000608659
0.000740845
0.000928409
0.00116474
0.00136472
0.00153828
0.00161863
0.00168623
0.00169716
0.00180148
0.00180015
0.00179973
0.00179898
0.00179791
0.00179781
0.00180017
0.00180523
0.00177897
0.00173029
0.00172034
0.00155193
0.00157626
0.00132983
0.00114949
0.00116132
0.00114909
0.00112987
0.0011126
0.00110002
0.00106811
0.00126623
0.0011175
0.00112257
0.00127225
0.00108486
0.00109805
0.0011167
0.00126117
0.00111133
0.00111096
0.00108454
0.00111397
0.001166
0.000976365
0.000895091
0.000830302
0.000768168
0.000676474
0.000592615
0.000520435
0.000582608
0.000541518
0.000351607
0.000310792
0.000285224
0.000266408
0.000362694
0.000211014
4.79225e-06
6.30785e-05
0.000372009
0.000519562
0.000391428
0.000242545
0.000114255
4.72815e-05
1.69463e-05
6.44107e-06
3.65827e-06
4.1093e-06
1.03779e-05
0.000158006
0.001605
9.00308e-05
3.94244e-05
4.57714e-05
0.000115767
0.000176051
0.000155715
0.000249715
0.00057945
0.00108107
0.00142105
0.00166182
0.00161774
0.00156751
0.00147605
0.00133955
0.00119704
0.00100497
0.000820891
0.000718466
0.000751989
0.00107326
0.000724169
0.000891603
0.000673538
0.000662979
0.000635577
0.000657728
0.000716083
0.000840105
0.00103316
0.00125305
0.00143027
0.00157434
0.00162662
0.0016499
0.00169962
0.00180099
0.00170675
0.00179829
0.00179894
0.00179887
0.00179983
0.00180322
0.00180833
0.00172576
0.00172967
0.00161255
0.00153022
0.00152092
0.00132179
0.00114062
0.00115275
0.00114204
0.00112489
0.00110515
0.00127316
0.00112535
0.00112654
0.00110933
0.00111639
0.00107632
0.00107985
0.00109439
0.0011124
0.00111983
0.00110771
0.00110955
0.00107988
0.00111028
0.00104847
0.000972432
0.000891427
0.000827407
0.000761078
0.000673557
0.000590688
0.000518413
0.000466197
0.00042408
0.000349945
0.000309723
0.000284286
0.000265515
0.000253356
0.000210175
4.26867e-06
9.65078e-05
0.00165902
0.00069727
0.000300059
0.000152666
6.21379e-05
2.17884e-05
8.19997e-06
3.6255e-06
7.68943e-06
7.01168e-06
7.8113e-06
7.41064e-05
0.000124815
5.05188e-05
3.07362e-05
4.00117e-05
7.70985e-05
0.000104872
0.000143236
0.000314296
0.000745288
0.00120184
0.00146753
0.00160659
0.0016069
0.00157831
0.001476
0.00136586
0.00122935
0.00105312
0.000888922
0.000790616
0.000765843
0.000748074
0.000704932
0.000715759
0.000767253
0.00102645
0.000790156
0.000823002
0.000862994
0.000973748
0.00113686
0.0013364
0.00148114
0.00158853
0.00163568
0.00169535
0.00170132
0.0018016
0.00183047
0.00179971
0.00180015
0.00180085
0.00180272
0.00180669
0.0017775
0.0017278
0.00172647
0.00159368
0.00149789
0.00141801
0.00124829
0.00127276
0.00114181
0.00113173
0.00125157
0.00109591
0.00108212
0.00111307
0.00110827
0.00109891
0.0011084
0.00106523
0.00107339
0.00108956
0.00110666
0.00111144
0.00110304
0.00127699
0.00107329
0.0012406
0.00103944
0.00096732
0.000886556
0.00082361
0.000753555
0.000669843
0.000588136
0.000515757
0.000461752
0.00041604
0.000347832
0.000308304
0.000283041
0.000264337
0.000247492
0.000209123
3.30359e-06
9.57788e-05
0.00101747
0.000398949
0.000169271
8.34807e-05
2.97721e-05
3.67562e-05
4.74033e-06
2.75726e-06
2.45159e-06
3.10449e-06
4.8995e-06
3.90318e-05
4.75806e-05
2.80999e-05
3.85843e-05
3.57382e-05
5.71594e-05
9.61302e-05
0.000174918
0.000454563
0.00114878
0.00149166
0.0014948
0.00159306
0.00159455
0.00158398
0.00151725
0.00140265
0.00128226
0.00112821
0.000992922
0.000883895
0.000826579
0.000781702
0.000757978
0.000781118
0.000846729
0.000927054
0.000932494
0.00104125
0.00121919
0.00110073
0.00125078
0.0014339
0.00157589
0.00161755
0.00164154
0.00168183
0.00170238
0.00180233
0.00169314
0.00180125
0.00180211
0.00180365
0.00180597
0.0018088
0.00172494
0.00172716
0.00171811
0.00156473
0.00145501
0.00139894
0.0012362
0.00125765
0.0011287
0.00111757
0.00110503
0.00108498
0.00107007
0.00109821
0.00109064
0.00108663
0.00109877
0.00105432
0.00106542
0.00108359
0.00109984
0.00110392
0.00109741
0.0012759
0.00113019
0.00109067
0.00103135
0.000961106
0.000880499
0.000818898
0.000746089
0.000665391
0.000584981
0.00051251
0.00045725
0.000515342
0.000345326
0.000306571
0.00028149
0.00026289
0.000242771
0.000207891
2.38351e-06
5.66635e-05
0.000300204
0.000200693
7.62047e-05
3.91952e-05
4.76051e-05
2.71413e-05
1.01475e-05
2.92684e-06
2.92814e-06
4.21089e-06
1.01314e-05
2.24556e-05
2.73057e-05
2.64382e-05
3.68041e-05
5.16757e-05
7.26615e-05
0.000109465
0.000367271
0.00065548
0.00110281
0.00137587
0.00151135
0.00164545
0.00164144
0.001593
0.00162212
0.00146238
0.00135317
0.00123215
0.00111265
0.00102098
0.000959961
0.000910736
0.000872873
0.000904512
0.000965492
0.00107534
0.00126216
0.00108828
0.00110361
0.00119407
0.00132531
0.00148755
0.00165147
0.00162535
0.00164299
0.00165478
0.00170266
0.00173176
0.00169139
0.00180362
0.00180465
0.001806
0.00180826
0.00168412
0.00172566
0.00172211
0.00169821
0.00152406
0.00157408
0.00140521
0.00120414
0.00113571
0.00111295
0.00110074
0.00109046
0.00107288
0.00105759
0.00108123
0.00107277
0.00107249
0.00108776
0.00110341
0.00105622
0.00107647
0.00109217
0.00126725
0.00109087
0.00108906
0.00111692
0.00107608
0.00102366
0.000953844
0.000873297
0.00096962
0.000738128
0.000660072
0.00058124
0.000508718
0.000452531
0.000401826
0.000342433
0.000304518
0.000279649
0.000261188
0.000238782
0.000206496
3.97152e-06
3.2437e-05
0.000119319
6.33999e-05
3.02213e-05
1.56291e-05
2.68327e-05
6.61815e-06
3.48279e-06
3.28546e-06
6.87676e-06
1.10307e-05
1.64601e-05
2.09643e-05
2.38222e-05
2.93957e-05
4.46279e-05
6.38769e-05
8.66837e-05
0.000136301
0.000318882
0.00104421
0.00124407
0.00155148
0.00156545
0.00160818
0.00160288
0.0016014
0.00156886
0.00149339
0.00156472
0.00133921
0.00125816
0.00118423
0.00113695
0.0012267
0.001045
0.00105039
0.00111133
0.00115283
0.00114392
0.00112323
0.00116253
0.0012663
0.0013786
0.00149932
0.00159137
0.00162771
0.00164211
0.00165263
0.00170276
0.00170654
0.00168789
0.00177173
0.00177331
0.0017753
0.0017779
0.0017262
0.00172238
0.00160952
0.00156103
0.00173621
0.00153478
0.00129135
0.00111169
0.00111694
0.00109499
0.0010814
0.00107522
0.00125074
0.00123545
0.00106203
0.00105391
0.00105675
0.00121216
0.00108789
0.00110783
0.001068
0.00108387
0.00126565
0.00108346
0.00107842
0.00110218
0.00106192
0.00108638
0.000945599
0.000864993
0.000803239
0.000729602
0.000654068
0.000576824
0.000504429
0.000447554
0.000394587
0.000339226
0.000302159
0.000277525
0.000259234
0.000235284
0.000204952
1.2984e-06
1.6382e-05
4.99916e-05
4.36804e-05
1.21602e-05
6.45127e-06
5.27826e-06
3.63972e-06
3.48071e-06
4.67086e-06
9.82631e-06
1.86113e-05
4.80043e-05
4.29907e-05
3.66477e-05
3.7277e-05
6.10937e-05
8.77554e-05
0.000138827
0.000200802
0.000417137
0.000831423
0.00119589
0.00142272
0.00164247
0.0016568
0.00160953
0.00160167
0.00163911
0.00153492
0.00148134
0.00143634
0.00141322
0.00136725
0.00131127
0.00126015
0.00139101
0.0012166
0.0012595
0.00141397
0.00121616
0.00120918
0.00125498
0.00133572
0.00142277
0.00151025
0.00160186
0.00162873
0.00164118
0.00165022
0.00165525
0.00170749
0.00171204
0.00171631
0.00168188
0.00172258
0.00172685
0.00172448
0.00170858
0.00157447
0.00175942
0.0016648
0.00136904
0.00120239
0.00122974
0.0010967
0.00107506
0.00105932
0.00124392
0.00103715
0.00107337
0.00104056
0.00103433
0.00103974
0.00105659
0.00107147
0.00109317
0.00105759
0.00126107
0.00107575
0.00126528
0.0012577
0.00108658
0.00104752
0.00107623
0.000935864
0.000855637
0.000792679
0.000720637
0.000647391
0.000571809
0.000499693
0.000441104
0.000387858
0.000335733
0.000299506
0.000275132
0.000257067
0.000232127
0.000203263
5.40529e-07
6.58223e-06
1.3839e-05
2.11749e-05
5.01848e-06
3.32271e-06
7.25577e-06
3.39321e-06
6.43366e-06
1.26697e-05
1.43528e-05
3.00073e-05
0.000106111
0.000174837
7.07027e-05
6.56833e-05
8.10579e-05
0.000122922
0.000271073
0.000459968
0.000804021
0.000919125
0.00121153
0.00142095
0.00155567
0.00165192
0.00161016
0.00160405
0.00160169
0.0015671
0.00154829
0.00153509
0.00157767
0.00161263
0.00156986
0.00145248
0.00140646
0.00137623
0.00137017
0.00135796
0.0013054
0.00129853
0.00133801
0.00140301
0.00147693
0.00154274
0.00160719
0.00163028
0.0016405
0.00164731
0.00165145
0.00165303
0.00171295
0.00171829
0.00172112
0.00172343
0.00167408
0.00172026
0.00158222
0.00152497
0.00145249
0.00145732
0.00126874
0.00109686
0.00117097
0.00120405
0.00105266
0.00103555
0.00122768
0.00106723
0.00104169
0.00101772
0.00101402
0.00102146
0.00103705
0.00105402
0.00121494
0.0012346
0.00106281
0.00106276
0.00106094
0.00111442
0.00107019
0.00103246
0.000986437
0.000910639
0.000845307
0.000781656
0.000711259
0.000640116
0.000566255
0.000494617
0.000434524
0.000381346
0.000331821
0.000296576
0.000272484
0.000254664
0.000229228
0.000201425
8.39833e-08
5.1419e-06
1.13198e-05
9.62411e-06
3.1398e-06
2.95772e-06
3.5406e-06
6.42017e-06
9.16464e-06
1.46585e-05
2.71878e-05
5.35603e-05
0.000315372
0.000467065
0.000124317
9.15468e-05
0.000104426
0.000146068
0.000287561
0.000498695
0.000749458
0.00101329
0.00126942
0.00143009
0.00152937
0.00160708
0.00161402
0.00160823
0.00160239
0.00160203
0.00159267
0.00158422
0.0016019
0.0015898
0.00156767
0.00161651
0.00154841
0.00160054
0.00151162
0.00157053
0.00141937
0.00140747
0.00143514
0.00148045
0.00152964
0.00157481
0.00161268
0.00162958
0.00166794
0.00164302
0.00164463
0.00164577
0.00164559
0.00171781
0.00167003
0.00171732
0.00174544
0.0015868
0.00153319
0.0014624
0.00153018
0.00140778
0.00118468
0.00120572
0.00107167
0.00104456
0.00102858
0.00100939
0.00105834
0.0011757
0.00101154
0.00099437
0.000992954
0.00100208
0.0010174
0.00103594
0.001059
0.00108814
0.00104963
0.00123707
0.00110792
0.00109291
0.00105303
0.00101661
0.000968842
0.000898632
0.0008341
0.000770107
0.000701524
0.000765082
0.00056019
0.000489202
0.000427825
0.000374953
0.000327635
0.000293413
0.00026957
0.000252064
0.000225637
0.000199465
7.16646e-07
4.68717e-06
7.14442e-06
7.81234e-06
4.41519e-06
7.57308e-06
7.63658e-06
1.23934e-05
1.7281e-05
2.17772e-05
3.44269e-05
6.33037e-05
0.000196032
0.00102408
0.000184769
0.000110276
0.000110801
0.000159348
0.000445208
0.000877766
0.000881052
0.00114049
0.00150121
0.00145353
0.0015292
0.00164934
0.00165897
0.00161379
0.00162632
0.00165296
0.00162047
0.00161779
0.00161794
0.00161195
0.00160196
0.00159839
0.00159471
0.00159208
0.00161613
0.00154867
0.00152316
0.00149924
0.0015148
0.00155853
0.00159183
0.00160281
0.00160238
0.00162279
0.00162257
0.00163483
0.00166291
0.00166311
0.00166384
0.00162896
0.00161661
0.00160213
0.00157843
0.0015362
0.00147046
0.00153883
0.00133709
0.00119925
0.00106819
0.00107108
0.00104113
0.00101252
0.00119286
0.00117671
0.00101747
0.00100173
0.000982206
0.000970344
0.00097098
0.000981772
0.000997475
0.00101717
0.00103923
0.0010666
0.0010967
0.00109206
0.00108757
0.00107261
0.00103543
0.00100011
0.000951236
0.00088569
0.000822133
0.000757991
0.000691536
0.00062069
0.000553656
0.000598426
0.000421011
0.000368591
0.000323268
0.00029002
0.00026641
0.000249277
0.000222269
0.000197377
7.54521e-07
1.72938e-06
2.93819e-06
5.87746e-06
1.2119e-05
1.34916e-05
2.10318e-05
2.38859e-05
3.8069e-05
5.09565e-05
6.35126e-05
9.52505e-05
0.000216125
0.000608233
0.000199759
0.000123593
0.000128025
0.00018527
0.000431242
0.00074712
0.000989578
0.00125509
0.00157859
0.00147678
0.00153187
0.00164435
0.0016098
0.00160954
0.00166354
0.00163987
0.00166026
0.00163075
0.0016306
0.00162776
0.0016203
0.00161706
0.00161654
0.00161489
0.00161137
0.00160072
0.00163841
0.00163313
0.00158611
0.00159412
0.00165393
0.00161173
0.00160037
0.00164815
0.00161234
0.00161645
0.0016675
0.00160349
0.0015969
0.00159254
0.00176011
0.00178372
0.00152534
0.00173577
0.001565
0.00139058
0.00122656
0.0011496
0.00116778
0.00104055
0.0011804
0.000979326
0.00116758
0.000989121
0.000979341
0.000967262
0.000953966
0.000945927
0.000948452
0.000960602
0.000977223
0.00099766
0.00101935
0.00104475
0.0012141
0.00107013
0.00106693
0.00118821
0.0010173
0.000982879
0.000933511
0.000871908
0.000809479
0.000745454
0.000681306
0.000608807
0.000668917
0.000475148
0.000413956
0.000362247
0.000318678
0.000286396
0.000263036
0.000245409
0.000218925
0.000195172
5.44466e-06
3.75976e-06
6.93375e-06
1.80474e-05
5.19519e-05
4.84278e-05
5.24706e-05
6.44476e-05
9.21757e-05
0.000229886
0.000131038
0.000218009
0.000258858
0.000702349
0.000274669
0.000147098
0.000167001
0.000336311
0.000667234
0.00099127
0.00111144
0.00150202
0.0014962
0.00150269
0.00152748
0.00156832
0.00159708
0.00161084
0.0016125
0.00162659
0.00163353
0.00163172
0.00163591
0.00166433
0.00163199
0.0016297
0.00162991
0.00163015
0.00165539
0.00161527
0.00161069
0.00159714
0.00160039
0.00162174
0.00165864
0.00161012
0.00160013
0.00159456
0.0015771
0.00159874
0.00159246
0.00159614
0.00155748
0.00178888
0.00177759
0.00149519
0.00145856
0.00162868
0.00140346
0.00123392
0.00104805
0.00102412
0.00112826
0.00100767
0.000974743
0.000990833
0.000971147
0.000948589
0.000944129
0.00093529
0.000926353
0.000921137
0.000925322
0.00093877
0.00095654
0.000977619
0.000999035
0.0010223
0.0010537
0.00104832
0.00104613
0.00103256
0.000998678
0.0010648
0.000901852
0.00101905
0.000953904
0.00073241
0.000670699
0.000596738
0.000534936
0.000466482
0.000406692
0.000356012
0.000313895
0.00028255
0.000259484
0.000241499
0.00021558
0.000192886
1.17748e-05
3.60164e-05
2.86166e-05
6.61907e-05
0.00080013
0.000134037
0.00011929
0.000156873
0.000291027
0.000240943
0.000295767
0.000275437
0.000279642
0.000561659
0.000351026
0.000185815
0.000235461
0.000482606
0.000613924
0.0011273
0.00121365
0.00136514
0.00157836
0.00147222
0.00152336
0.00154757
0.00164873
0.00158792
0.00159177
0.00160569
0.00162565
0.00162769
0.001657
0.00163071
0.00166134
0.00163701
0.00163838
0.00167212
0.00166202
0.00162452
0.00162184
0.00162369
0.00162588
0.00162921
0.001606
0.00158305
0.00156566
0.00155731
0.0015764
0.0017607
0.00162953
0.00157688
0.0015842
0.00159559
0.00158917
0.00163686
0.00152766
0.00141816
0.00124651
0.00114192
0.00114784
0.00101858
0.000997017
0.000972307
0.000987959
0.000946594
0.000925615
0.000910414
0.00103444
0.000904911
0.000884416
0.000881815
0.000888014
0.000916392
0.000935572
0.000956821
0.000978484
0.000999862
0.00116592
0.00102599
0.00102481
0.00101171
0.000979634
0.000945636
0.000883063
0.000840438
0.000780532
0.000718385
0.000659767
0.000584545
0.000643765
0.000457813
0.000399177
0.000349693
0.000308992
0.000278429
0.00025575
0.000237521
0.00021223
0.000190464
0.000144875
0.000154052
9.34017e-05
0.000201972
0.000844223
0.000278398
0.000230463
0.000499232
0.000444082
0.000339503
0.000349633
0.000472322
0.000379784
0.000407028
0.000295841
0.000304469
0.000315451
0.000437632
0.000668535
0.000978729
0.0013839
0.00148471
0.00140236
0.00158667
0.00162978
0.00163966
0.00163544
0.00153546
0.001538
0.0015855
0.00164666
0.00165109
0.0016023
0.00160265
0.00162103
0.00166636
0.00166737
0.00163431
0.00162991
0.00166054
0.00163239
0.00163616
0.00166394
0.00161236
0.00164586
0.00154512
0.00167407
0.00151206
0.00155087
0.00164585
0.00158132
0.00155412
0.00151438
0.00150807
0.00146618
0.00142874
0.00131405
0.00127401
0.00113956
0.00113397
0.00111035
0.00112084
0.000949646
0.000981093
0.000932228
0.000895532
0.000875377
0.000866877
0.000855942
0.000854622
0.000852027
0.000851753
0.000859255
0.000875433
0.00105553
0.00093149
0.000953767
0.001053
0.000997332
0.00111067
0.000999143
0.000986959
0.000956341
0.000921118
0.000860128
0.000981417
0.000761296
0.000700951
0.000645884
0.000696948
0.000507572
0.000447407
0.000390122
0.000342019
0.000302962
0.000273042
0.000251043
0.000232734
0.000208185
0.000187442
0.000300101
0.000160219
0.000177944
0.000215451
0.000329233
0.000259798
0.000409672
0.000656411
0.000539858
0.000514643
0.000736822
0.000696446
0.000716757
0.000485295
0.000509104
0.000369628
0.000446113
0.000744219
0.000977659
0.00104836
0.00120809
0.0012957
0.00136248
0.00143859
0.00162603
0.00162666
0.00162327
0.00151233
0.00161584
0.00151415
0.0015261
0.00154524
0.00154968
0.00157298
0.00159371
0.00159363
0.00159863
0.00160653
0.00166044
0.00163411
0.0016643
0.00166741
0.0016623
0.00161097
0.00154569
0.00149821
0.00150379
0.00146775
0.00141843
0.00135669
0.00123513
0.00133592
0.00132072
0.00131932
0.00116287
0.00113485
0.00116819
0.00115007
0.00101338
0.00111613
0.00111682
0.00111273
0.000941623
0.000913636
0.000874532
0.00083998
0.000810387
0.000806283
0.000810525
0.00081642
0.000816684
0.000818027
0.000826687
0.0008434
0.00086461
0.000901418
0.000923082
0.000940218
0.000961417
0.000966379
0.000969036
0.000958146
0.000929122
0.000878746
0.000833524
0.000792556
0.000738675
0.000680155
0.000625977
0.000551586
0.000489471
0.000432845
0.000379351
0.000332895
0.000295804
0.000266488
0.000245281
0.000227302
0.00020345
0.000183714
0.000545682
0.000143781
0.000243817
0.000255432
0.000268891
0.000287558
0.00048422
0.000629147
0.000610886
0.000691376
0.00108831
0.000796446
0.000694439
0.000768144
0.000645853
0.000717336
0.000646114
0.000816958
0.00123523
0.00121263
0.00138093
0.00128837
0.00133963
0.00141659
0.00158659
0.00145381
0.00144355
0.00144067
0.00156522
0.00145541
0.00160227
0.00160689
0.00149521
0.00153915
0.00162146
0.00152126
0.00155107
0.00158205
0.00161581
0.00165764
0.00161107
0.00160641
0.00160686
0.00162983
0.00150196
0.00148756
0.00142452
0.00125045
0.00113364
0.00109108
0.00109209
0.00116629
0.00108384
0.00115741
0.00105349
0.00112089
0.00111172
0.00111917
0.000957044
0.000924306
0.000890691
0.000904604
0.000870841
0.000851168
0.000984225
0.000776484
0.000762079
0.000761868
0.00093638
0.000946542
0.000781886
0.000784449
0.000794043
0.00081157
0.000832366
0.000857035
0.000891292
0.000907455
0.000926101
0.000933299
0.000936724
0.000928607
0.00104876
0.000849078
0.000806449
0.000765002
0.000715675
0.000658965
0.000604751
0.000658247
0.000471635
0.000418695
0.000368298
0.000323667
0.000288406
0.000259687
0.000238908
0.000221788
0.000198671
0.000179785
0.000616791
0.000315552
0.000276847
0.000261635
0.000253926
0.000323666
0.000472193
0.000583374
0.000622001
0.00076779
0.000996034
0.00102371
0.000886837
0.000823439
0.00089129
0.000781646
0.000883676
0.00111123
0.00109787
0.00118023
0.00124774
0.00143439
0.0014667
0.00152083
0.00154704
0.00140495
0.00139539
0.00137508
0.00134958
0.00137008
0.00151735
0.00137714
0.00140555
0.00158258
0.0014405
0.00145994
0.00162185
0.00152323
0.0015415
0.00156942
0.0015838
0.00163802
0.00153387
0.00148865
0.0014871
0.0014401
0.00127643
0.00105237
0.00103482
0.00103005
0.00103557
0.00117873
0.00116609
0.00101574
0.000998603
0.000981218
0.000962646
0.000929954
0.000896399
0.000911781
0.000869729
0.000961693
0.000806562
0.000954863
0.000753108
0.000726888
0.000715808
0.000718579
0.000727807
0.000739628
0.000904512
0.000750854
0.000760761
0.00077933
0.000800661
0.000826477
0.000845746
0.00086115
0.000891384
0.00104448
0.000904272
0.00089818
0.000856507
0.000820277
0.000778817
0.000737635
0.00069169
0.000637232
0.000582567
0.000512921
0.000454072
0.000404745
0.000356065
0.00031419
0.000280665
0.000252581
0.000232438
0.000216128
0.000193777
0.000175716
0.00063441
0.000495537
0.000407182
0.000341747
0.00036014
0.000459849
0.000521558
0.000545082
0.000615352
0.000829459
0.000994219
0.00123697
0.00106384
0.00117704
0.000971922
0.00100777
0.00107841
0.00112554
0.00115891
0.00117574
0.00120996
0.00135202
0.00124271
0.00129446
0.00133436
0.00135076
0.00136703
0.00145703
0.00125969
0.00142102
0.00125163
0.00125513
0.00143088
0.00133586
0.00151047
0.00141476
0.00146216
0.00148493
0.00151916
0.00152043
0.00151585
0.0014938
0.00147797
0.0014545
0.0013616
0.00110337
0.0010722
0.00102706
0.00101171
0.00101011
0.0011663
0.00116136
0.00115525
0.000952615
0.00113245
0.000916196
0.000949465
0.00106833
0.000875801
0.000838674
0.000800911
0.000762884
0.00073783
0.000723784
0.000700218
0.000679175
0.000670854
0.000676101
0.000686665
0.000699793
0.000710458
0.000717886
0.000727624
0.000746768
0.000768669
0.000795845
0.000982037
0.000827922
0.000843049
0.000852708
0.000857023
0.000852049
0.000993627
0.000789737
0.000750742
0.000710627
0.00066752
0.000614536
0.000560147
0.000492481
0.000436663
0.000391003
0.000343796
0.000303799
0.000272569
0.000245186
0.00022587
0.00021003
0.000188703
0.000171505
0.000639003
0.000586052
0.000509899
0.000467165
0.000500034
0.000557532
0.000587621
0.000595012
0.000614117
0.000746232
0.00107737
0.00112618
0.00122379
0.00122095
0.00118322
0.00127008
0.00129211
0.00138504
0.00123742
0.00119233
0.00116919
0.0011399
0.00115863
0.00121476
0.00126406
0.00144888
0.00127408
0.00122299
0.00117142
0.00115856
0.00115676
0.0011818
0.00120765
0.00124151
0.00129544
0.00138116
0.00142989
0.00158391
0.00146724
0.0014727
0.00148937
0.00144476
0.00144604
0.00133459
0.00107923
0.00102151
0.0010598
0.00093033
0.000919564
0.000922402
0.000931162
0.000926806
0.000925185
0.000926135
0.000909393
0.000886035
0.000860875
0.000834021
0.000805518
0.000763394
0.000729658
0.00070279
0.00068236
0.0006688
0.000801589
0.000632003
0.000626217
0.000633728
0.000645851
0.000660648
0.000673041
0.000681854
0.000693854
0.000714371
0.000736624
0.000763805
0.000782047
0.000795662
0.000809527
0.000817422
0.000823623
0.000820287
0.000793161
0.000758978
0.000722704
0.000683058
0.000641499
0.000727298
0.000538056
0.000472798
0.000419581
0.000375365
0.000330922
0.000293457
0.000263026
0.00023764
0.000219145
0.000203866
0.000183426
0.000167069
0.000639862
0.000613757
0.000559165
0.000528792
0.000533541
0.000524627
0.000527411
0.000569239
0.000595531
0.000660218
0.000868172
0.00113124
0.0012359
0.00142257
0.00128308
0.00149817
0.0014832
0.00126199
0.00137758
0.001166
0.00127423
0.00106596
0.00107707
0.00114233
0.00132163
0.00133685
0.00121276
0.00134528
0.00111088
0.00108552
0.00110155
0.00114354
0.00132255
0.00119363
0.00125053
0.00132406
0.00153464
0.00142707
0.00143224
0.00156571
0.00143586
0.00143986
0.00129788
0.00104756
0.000968111
0.000910405
0.000855225
0.000828894
0.000823057
0.00082891
0.00100259
0.000836777
0.00083625
0.000984443
0.000979991
0.000805513
0.000775738
0.000751868
0.000894586
0.000701041
0.000671158
0.000646902
0.000628671
0.000615949
0.000600848
0.000585367
0.00058215
0.00059166
0.000605612
0.00062298
0.000776085
0.000646555
0.000659948
0.000681153
0.000704707
0.000731113
0.000748673
0.000763797
0.000777265
0.000784343
0.000962526
0.000960736
0.000760369
0.00072851
0.00069492
0.000655657
0.000615447
0.000567547
0.000514238
0.000453422
0.000402697
0.000360125
0.000318167
0.00028303
0.000253714
0.000230161
0.000212271
0.00019701
0.000177985
0.000162618
0.000638586
0.000610277
0.000562682
0.000523008
0.000483148
0.000422465
0.000401443
0.000449324
0.000516679
0.000559448
0.000688979
0.00078177
0.00112371
0.00120816
0.00124278
0.00128507
0.00125593
0.00117235
0.00113492
0.00105817
0.000992347
0.00095378
0.00116262
0.00104262
0.00110953
0.00133755
0.00119974
0.00127873
0.00110253
0.00103545
0.000989503
0.00102382
0.00106602
0.00112834
0.00120754
0.00127419
0.00131339
0.00142109
0.00141509
0.00139068
0.00134673
0.00107275
0.0010233
0.000939189
0.00084823
0.000955676
0.000762652
0.000743928
0.000743066
0.000751556
0.000926045
0.000746527
0.000747195
0.000749918
0.000739951
0.000723716
0.000705066
0.000684699
0.000666559
0.000786494
0.000614414
0.000592211
0.000575839
0.000564593
0.000550134
0.000540059
0.00053947
0.000550659
0.000566164
0.000583619
0.000599692
0.000611152
0.000626387
0.000648343
0.000672074
0.000698561
0.0007163
0.000731875
0.000744906
0.000751627
0.00075857
0.000926287
0.000728848
0.000698527
0.000666756
0.000628388
0.000589161
0.000542569
0.00049143
0.000434144
0.000386176
0.000345189
0.000305627
0.000272547
0.000244491
0.000222577
0.000205381
0.000190213
0.000172435
0.000158023
0.000634619
0.000588065
0.000523258
0.000461858
0.000388047
0.000301545
0.00027048
0.000314863
0.000399417
0.000462305
0.000528947
0.000700525
0.000884676
0.00103781
0.00111024
0.00113181
0.00127055
0.00118727
0.000991568
0.00106738
0.000844544
0.000830109
0.000876065
0.000941086
0.0010004
0.00109265
0.00115596
0.00100732
0.00108623
0.000851024
0.000810988
0.000885354
0.00108962
0.00100303
0.00112809
0.00122599
0.00126692
0.00139292
0.0012065
0.00130785
0.00103689
0.00096537
0.000899216
0.000973206
0.000745155
0.000699294
0.000812499
0.000659906
0.000805427
0.000677602
0.00082684
0.000671309
0.000673351
0.000676518
0.00081974
0.000655349
0.000638407
0.000619836
0.000601194
0.000581464
0.000558785
0.000538997
0.000524514
0.00064242
0.000502418
0.00049624
0.000497728
0.000510552
0.000527841
0.000546168
0.000562663
0.000576508
0.000592532
0.000615513
0.000639904
0.000665488
0.000684014
0.000700117
0.000712667
0.000719026
0.000724745
0.000723274
0.000854658
0.000667985
0.000638508
0.000600657
0.00056258
0.000517454
0.000469592
0.000415307
0.000369725
0.000330525
0.000293338
0.000262109
0.000235624
0.000214899
0.000198411
0.000183542
0.000167019
0.000153282
0.00062569
0.000543794
0.000443139
0.000361222
0.000274919
0.000194121
0.000171437
0.000210109
0.000294269
0.000370906
0.000420305
0.000512921
0.000678108
0.000834914
0.000919913
0.00107261
0.000889378
0.000828308
0.00102286
0.000759489
0.000704082
0.000690199
0.000727851
0.000907983
0.000817209
0.000782208
0.000777856
0.000867957
0.00100121
0.000756544
0.000693462
0.000720908
0.0007905
0.000892587
0.00104774
0.00124626
0.00118867
0.00116669
0.00110912
0.00111922
0.000922975
0.000977392
0.000765951
0.000837636
0.000774913
0.000597272
0.00057946
0.000575774
0.000584654
0.000737315
0.000597171
0.000595613
0.000599881
0.000604492
0.000599699
0.000587794
0.000572622
0.00055622
0.00053912
0.000522
0.000505478
0.000488669
0.000474656
0.000468357
0.00045711
0.000453699
0.000457995
0.00047206
0.000490331
0.000509912
0.000527164
0.000542001
0.00055958
0.000582824
0.000607404
0.000632872
0.000651588
0.000667766
0.000680461
0.000686768
0.00069142
0.000688779
0.000665723
0.000637591
0.000610557
0.000573178
0.000536342
0.000492933
0.000447662
0.000396784
0.000353668
0.000316158
0.000281131
0.000251611
0.000226841
0.000207261
0.000191347
0.000176924
0.000161702
0.000148396
0.00060645
0.000470544
0.000335476
0.000250589
0.000173438
0.000114367
0.000105259
0.000141796
0.000215137
0.000295699
0.000345559
0.000394901
0.000496966
0.000602431
0.000704782
0.000757787
0.000709907
0.000668134
0.000637397
0.00055587
0.000530321
0.000534207
0.000547415
0.000555979
0.000551806
0.000572045
0.00060982
0.000772556
0.000940244
0.000653639
0.000783302
0.000568174
0.000642316
0.000774285
0.000933217
0.00114418
0.00107751
0.00117512
0.000974825
0.000873616
0.000786796
0.000708456
0.000637813
0.000581833
0.00053497
0.00049948
0.000487901
0.000621003
0.000504582
0.000522723
0.000517533
0.000520813
0.000527492
0.00053354
0.00053003
0.000522027
0.0005094
0.000495606
0.000605401
0.0004662
0.000454606
0.000559689
0.000427632