/*--------------------------------*- C++ -*----------------------------------*\
  =========                 |
  \\      /  F ield         | OpenFOAM: The Open Source CFD Toolbox
   \\    /   O peration     | Website:  https://openfoam.org
    \\  /    A nd           | Version:  6
     \\/     M anipulation  |
\*---------------------------------------------------------------------------*/
FoamFile
{
    version     2.0;
    format      ascii;
    class       volScalarField;
    location    "0.1";
    object      H2O;
}
// * * * * * * * * * * * * * * * * * * * * * * * * * * * * * * * * * * * * * //

dimensions      [0 0 0 0 0 0 0];

internalField   nonuniform List<scalar> 
8000
(
0.000226396
0.00430347
0.0224222
0.059407
0.0825183
0.0601385
0.0350921
0.01613
0.00582999
0.00162968
0.000530821
0.000391315
0.00077955
0.00593027
0.00526701
0.00540419
0.0363906
0.12224
0.0537891
0.0313457
0.0356332
0.0527814
0.0792148
0.105763
0.122884
0.127254
0.127764
0.127799
0.126441
0.0926777
0.120706
0.116278
0.104384
0.0937592
0.0847973
0.0778933
0.0742118
0.0756268
0.0845176
0.0936307
0.0890787
0.0878415
0.0925323
0.101304
0.111363
0.121022
0.127988
0.131679
0.131863
0.113645
0.121913
0.127377
0.128066
0.127961
0.127754
0.127492
0.127352
0.127521
0.128059
0.128868
0.131216
0.131997
0.134393
0.134143
0.134186
0.132513
0.131354
0.13011
0.129164
0.128525
0.128046
0.126751
0.126904
0.12383
0.123967
0.127342
0.127308
0.127783
0.128563
0.128926
0.128257
0.128154
0.127219
0.123592
0.121623
0.118949
0.116389
0.113983
0.113372
0.108326
0.104914
0.101646
0.0992053
0.0973993
0.0926871
0.0901014
0.0883823
0.0870844
0.0869219
0.0826507
0.000219071
0.00490165
0.0251185
0.0626048
0.0880448
0.0606173
0.03371
0.0155482
0.0053739
0.0014141
0.000478535
0.000437085
0.00126939
0.0192914
0.0161029
0.00815855
0.0158239
0.0309938
0.0356795
0.0371753
0.0404004
0.0560729
0.0815647
0.107
0.123415
0.127237
0.127912
0.127911
0.126742
0.123426
0.121904
0.11448
0.104307
0.0953166
0.0880873
0.0821414
0.07848
0.0793473
0.0882322
0.110553
0.0947767
0.0906416
0.0945748
0.102969
0.112595
0.121809
0.128379
0.131852
0.132005
0.131101
0.128854
0.128291
0.12802
0.12788
0.127714
0.127516
0.127447
0.127673
0.12823
0.129013
0.131295
0.132058
0.13445
0.133944
0.134083
0.132409
0.131252
0.130035
0.1291
0.128429
0.128031
0.126654
0.126872
0.123749
0.123901
0.127314
0.127251
0.12774
0.12851
0.128929
0.128219
0.128138
0.127172
0.123545
0.121621
0.118908
0.116346
0.113946
0.111847
0.10828
0.104882
0.10161
0.0991737
0.0973864
0.092649
0.0900731
0.0883545
0.0870564
0.0869223
0.0826203
0.000259813
0.0081379
0.042944
0.0973324
0.0624535
0.0451309
0.0248498
0.0282459
0.0171184
0.00148703
0.00444023
0.000476818
0.00195582
0.0472505
0.0449869
0.0186292
0.0104868
0.0150797
0.0579034
0.112251
0.0594607
0.0643581
0.0867118
0.109557
0.124448
0.12675
0.127788
0.12815
0.127377
0.124994
0.121394
0.114386
0.105521
0.0987244
0.0950223
0.0917994
0.0876293
0.0871625
0.0901
0.0941454
0.0921859
0.093225
0.0981889
0.106253
0.115047
0.12338
0.129207
0.132172
0.132261
0.131432
0.130866
0.128079
0.127697
0.127703
0.127676
0.127607
0.127657
0.127975
0.128562
0.12987
0.13145
0.132185
0.134573
0.134162
0.133915
0.132184
0.13042
0.129863
0.128966
0.128229
0.127708
0.12647
0.12428
0.123568
0.123756
0.125782
0.127125
0.127648
0.128395
0.128548
0.128132
0.128105
0.127067
0.123447
0.120699
0.118818
0.116254
0.113867
0.11153
0.108188
0.104813
0.101531
0.096874
0.0947973
0.0925652
0.0900108
0.0882933
0.0869949
0.0826856
0.0825532
0.0003935
0.014012
0.0457995
0.0580747
0.0451001
0.0303634
0.0158746
0.00698828
0.00211924
0.000553759
0.000258395
0.000298505
0.0010337
0.0464329
0.124603
0.0274206
0.00796537
0.00977461
0.0386058
0.0513487
0.0505747
0.0667771
0.091993
0.114072
0.125542
0.122314
0.127117
0.128451
0.127971
0.125839
0.122221
0.115526
0.107752
0.102735
0.10332
0.110771
0.100174
0.102548
0.0972519
0.0971792
0.0966608
0.099199
0.103775
0.110775
0.119011
0.126227
0.130336
0.1325
0.132468
0.132168
0.130863
0.127799
0.120534
0.127581
0.127756
0.127822
0.127972
0.128374
0.128987
0.131129
0.131652
0.133738
0.134747
0.134317
0.133709
0.131848
0.130095
0.129584
0.128781
0.127945
0.126206
0.12385
0.123892
0.123282
0.12354
0.12679
0.126931
0.127508
0.128224
0.128509
0.127995
0.128056
0.126898
0.123314
0.121242
0.118677
0.116116
0.113748
0.111263
0.108056
0.104708
0.101413
0.0988494
0.0967496
0.0924354
0.0899166
0.0882006
0.0869016
0.0862117
0.0824482
0.000334752
0.0290309
0.122411
0.071005
0.0380961
0.0209277
0.00898983
0.00288391
0.000779794
0.000257344
0.00234372
0.00214948
0.00239285
0.0209309
0.0296446
0.0117558
0.00532565
0.007957
0.0237682
0.0354559
0.0487928
0.072849
0.0997326
0.118008
0.126214
0.127311
0.128133
0.12888
0.128702
0.126764
0.123397
0.117434
0.110641
0.106024
0.104339
0.102855
0.10012
0.100252
0.102757
0.106985
0.105199
0.107899
0.110924
0.11654
0.122456
0.128453
0.131811
0.133016
0.13261
0.13154
0.130909
0.12806
0.127059
0.127904
0.128048
0.128171
0.128358
0.128819
0.130028
0.131428
0.131882
0.133983
0.134906
0.134457
0.133113
0.131413
0.129664
0.129173
0.128202
0.127592
0.127017
0.123421
0.123249
0.122915
0.12326
0.126374
0.126681
0.127324
0.128005
0.128175
0.127819
0.126949
0.126658
0.122785
0.12094
0.118491
0.115931
0.113592
0.110977
0.107887
0.104568
0.101257
0.098586
0.0962496
0.0922696
0.0897912
0.0880771
0.0867785
0.0856438
0.082315
0.000235604
0.0272526
0.0936618
0.0512653
0.0246459
0.0123681
0.00420153
0.0097678
0.000367844
0.000181599
0.00015837
0.000207831
0.000373952
0.00836502
0.0106843
0.00861866
0.0118623
0.0109661
0.01793
0.0330749
0.0546756
0.0837645
0.114719
0.124271
0.127084
0.12793
0.128687
0.129124
0.12923
0.127805
0.124938
0.119928
0.115012
0.109854
0.106941
0.104421
0.102918
0.103925
0.107306
0.111774
0.11272
0.11782
0.117502
0.121249
0.126221
0.130447
0.132566
0.13318
0.132759
0.121441
0.131069
0.128435
0.120417
0.128264
0.128453
0.128611
0.128786
0.12927
0.13135
0.131747
0.132143
0.134227
0.135053
0.133999
0.132635
0.130866
0.129134
0.128614
0.128006
0.127173
0.126555
0.122897
0.122626
0.122487
0.122921
0.125969
0.126384
0.127097
0.127744
0.127887
0.127606
0.126515
0.124015
0.12265
0.120663
0.118265
0.1157
0.113397
0.110687
0.107681
0.104396
0.101066
0.0983102
0.0929921
0.0920715
0.089633
0.0879234
0.0866266
0.0851796
0.0821574
0.000156731
0.0162088
0.0467433
0.0369699
0.0123083
0.00588163
0.0122356
0.00816841
0.00311078
0.000193763
0.000193451
0.000304885
0.00310534
0.0034182
0.00457286
0.00421881
0.00690693
0.0121648
0.021855
0.0384965
0.074723
0.0957437
0.11523
0.124392
0.12772
0.122923
0.123005
0.129413
0.123407
0.128934
0.126778
0.12353
0.119061
0.115575
0.112996
0.110708
0.10844
0.110405
0.113387
0.118046
0.118257
0.119969
0.121193
0.124592
0.128341
0.132092
0.122668
0.133163
0.133007
0.132642
0.131512
0.130377
0.120599
0.128748
0.128942
0.129109
0.129261
0.121138
0.131698
0.132064
0.132391
0.134426
0.133384
0.133453
0.131976
0.12958
0.128505
0.127939
0.127445
0.126709
0.126095
0.122301
0.122005
0.121995
0.122531
0.123103
0.126044
0.126824
0.127449
0.126576
0.127359
0.127278
0.123552
0.122161
0.120395
0.117998
0.115423
0.114069
0.110377
0.107443
0.10419
0.100842
0.0980159
0.095347
0.0918414
0.0894448
0.08774
0.0864466
0.0847784
0.0819774
0.00124128
0.00990435
0.026545
0.0116425
0.00467211
0.00190571
0.00802105
0.000557562
0.00023962
0.000221514
0.00209521
0.00338073
0.0020209
0.00642146
0.00365691
0.00500931
0.00963466
0.0174705
0.0286122
0.0465129
0.0743709
0.112347
0.119815
0.125061
0.127912
0.128608
0.129179
0.129688
0.129955
0.129689
0.123354
0.126377
0.123971
0.121581
0.120051
0.116156
0.116246
0.116662
0.119551
0.121443
0.121791
0.121463
0.123167
0.126741
0.12979
0.132508
0.133428
0.133708
0.133317
0.133049
0.131948
0.131425
0.120877
0.129907
0.130058
0.130184
0.130311
0.131572
0.132035
0.133552
0.133982
0.130206
0.132667
0.132836
0.130843
0.128848
0.127792
0.127166
0.126864
0.124121
0.122792
0.121629
0.121343
0.121452
0.121803
0.12255
0.123272
0.126498
0.12713
0.126075
0.127078
0.126867
0.123035
0.12168
0.118283
0.117692
0.115102
0.112782
0.110041
0.10717
0.103953
0.100587
0.0976999
0.0948729
0.0915841
0.0892274
0.0875276
0.0862391
0.0844178
0.0817762
7.79129e-05
0.00233343
0.0132193
0.0114707
0.00137926
0.000554269
0.000416987
0.000254454
0.00023879
0.000347364
0.00301104
0.00570619
0.0140051
0.0088644
0.0111875
0.0113974
0.0191511
0.0268709
0.0380659
0.0579849
0.0826168
0.105477
0.119125
0.126254
0.123216
0.122645
0.129465
0.129789
0.123137
0.130092
0.129544
0.128435
0.12775
0.126506
0.124909
0.124027
0.119896
0.122913
0.124529
0.12095
0.124246
0.124584
0.126222
0.128623
0.130918
0.132894
0.133579
0.133946
0.133575
0.133347
0.133016
0.1319
0.131551
0.131375
0.121295
0.131511
0.131551
0.131923
0.132238
0.133709
0.1295
0.131112
0.133054
0.13198
0.13006
0.128028
0.126995
0.126307
0.124873
0.125349
0.12204
0.12087
0.120656
0.120867
0.121445
0.121967
0.122753
0.126106
0.125306
0.126804
0.124828
0.12403
0.122493
0.121183
0.117925
0.117331
0.114738
0.112372
0.10968
0.106854
0.103684
0.100304
0.0973015
0.0944127
0.0913018
0.0889817
0.0872867
0.086004
0.0840844
0.0815547
3.27867e-05
0.00060222
0.00175105
0.00651489
0.000402193
0.000229704
0.0022574
0.000231845
0.00196121
0.00388431
0.00155844
0.00920511
0.029445
0.0454839
0.01795
0.0172442
0.023608
0.0383905
0.0624475
0.0823153
0.103453
0.109376
0.120117
0.126615
0.128932
0.122968
0.129707
0.13001
0.130239
0.130291
0.129999
0.129693
0.129405
0.122236
0.122229
0.127986
0.127435
0.127314
0.127494
0.127392
0.126924
0.127118
0.128456
0.130301
0.132133
0.133284
0.133831
0.134122
0.133731
0.133545
0.133305
0.133066
0.13203
0.131794
0.131827
0.131857
0.12169
0.12375
0.133612
0.133851
0.134247
0.132931
0.132065
0.130339
0.128556
0.12693
0.12612
0.125366
0.123084
0.121855
0.120914
0.120054
0.119956
0.120232
0.120771
0.121351
0.121799
0.122954
0.126314
0.126298
0.126223
0.123495
0.121936
0.120658
0.119087
0.116723
0.114333
0.111935
0.109294
0.106505
0.103382
0.0999916
0.0968887
0.0939615
0.0909892
0.0887084
0.0870177
0.085743
0.0837679
0.0813133
7.49876e-06
0.00160737
0.00356153
0.00302195
0.000213722
0.00019685
0.000244962
0.00197085
0.00280813
0.00449253
0.00833727
0.0168655
0.0740096
0.0835496
0.0366271
0.0275812
0.0324961
0.0468946
0.0692708
0.087636
0.102184
0.113096
0.122083
0.127191
0.129339
0.129469
0.130003
0.130271
0.130373
0.130472
0.130397
0.130302
0.130086
0.129962
0.129671
0.122262
0.129541
0.122195
0.129662
0.122488
0.129657
0.12947
0.130426
0.132043
0.132905
0.133632
0.134035
0.134231
0.122482
0.133661
0.133521
0.133361
0.133242
0.132128
0.121852
0.13213
0.12446
0.133554
0.133758
0.13393
0.13218
0.132174
0.130949
0.129328
0.127214
0.125919
0.12517
0.124347
0.121588
0.120476
0.119825
0.119242
0.119226
0.119561
0.120085
0.120723
0.121534
0.122596
0.125816
0.12311
0.123282
0.122732
0.121347
0.120105
0.118462
0.116265
0.113887
0.111471
0.108877
0.105448
0.103049
0.099652
0.0964568
0.0935116
0.0906498
0.0884078
0.0867223
0.085457
0.0833809
0.0810513
0.000234315
0.00148892
0.00222698
0.00242016
0.000321971
0.0023208
0.000661789
0.00379846
0.00529763
0.00667786
0.0105632
0.0142854
0.0524814
0.112403
0.0506564
0.0340283
0.0357979
0.0520075
0.0844171
0.107225
0.108031
0.118256
0.124962
0.128063
0.129689
0.123166
0.122836
0.130564
0.130355
0.122853
0.130448
0.130506
0.130573
0.130607
0.13057
0.129983
0.130265
0.130214
0.122528
0.131099
0.131224
0.131507
0.132174
0.132918
0.133399
0.133856
0.134315
0.134279
0.134142
0.133755
0.122395
0.122334
0.12228
0.133453
0.133443
0.133477
0.133577
0.133732
0.133849
0.131826
0.131955
0.131964
0.129237
0.127317
0.125854
0.124558
0.121724
0.120438
0.120081
0.119474
0.118766
0.118396
0.118454
0.118849
0.119392
0.120065
0.120831
0.121819
0.122915
0.122735
0.122558
0.122008
0.120734
0.119522
0.117831
0.115765
0.113407
0.110973
0.108438
0.105582
0.102676
0.0971215
0.0960021
0.0930574
0.0902875
0.088081
0.0864012
0.0851498
0.0829922
0.0807696
0.00025177
0.000105145
0.000191254
0.00046328
0.00121053
0.00412803
0.00289615
0.00732311
0.00734395
0.0110873
0.0138782
0.0223486
0.0539429
0.0855038
0.0526764
0.0371955
0.0406233
0.0574411
0.0849773
0.102536
0.11241
0.121824
0.125221
0.128946
0.130091
0.123732
0.130546
0.130812
0.122543
0.130387
0.122578
0.130197
0.129878
0.130013
0.130511
0.130623
0.130387
0.130533
0.131278
0.131817
0.122837
0.123171
0.132881
0.133548
0.122987
0.134082
0.134375
0.123089
0.13422
0.133879
0.123231
0.133824
0.133752
0.133647
0.126019
0.127806
0.133762
0.129579
0.131577
0.13161
0.130457
0.129634
0.12793
0.125936
0.123718
0.123122
0.120124
0.119118
0.118666
0.118206
0.117757
0.117526
0.117653
0.118097
0.118677
0.119381
0.120134
0.121036
0.121882
0.121946
0.121818
0.121019
0.120097
0.118905
0.117185
0.115229
0.112889
0.110443
0.107978
0.104989
0.100732
0.0987828
0.0955238
0.0925935
0.0899051
0.0877291
0.0860547
0.08475
0.0825992
0.0804684
0.000341926
0.00121753
0.000534014
0.00553254
0.016167
0.0104579
0.012248
0.0201212
0.0283769
0.0623745
0.0315493
0.0615977
0.0573839
0.102734
0.0703153
0.0415673
0.0490949
0.0755892
0.0996178
0.111529
0.117613
0.125328
0.128717
0.129431
0.130429
0.131001
0.131232
0.13117
0.131254
0.131087
0.131125
0.130566
0.130244
0.122409
0.13056
0.130705
0.130807
0.130953
0.122522
0.132271
0.132583
0.133134
0.133531
0.133773
0.122913
0.134159
0.134056
0.133857
0.134124
0.134037
0.133864
0.133723
0.13387
0.128157
0.128135
0.133804
0.133829
0.130147
0.13163
0.130312
0.128501
0.12747
0.125968
0.12443
0.122891
0.119204
0.118393
0.117569
0.117365
0.117037
0.116759
0.116632
0.116822
0.117315
0.117938
0.118671
0.119413
0.120232
0.121367
0.121163
0.121078
0.120593
0.119441
0.117246
0.116333
0.11582
0.113231
0.109885
0.107486
0.104379
0.10162
0.0982437
0.0950247
0.0921133
0.0895028
0.0873529
0.0856836
0.0843397
0.0821995
0.0801473
0.00422102
0.0031574
0.00323265
0.0208556
0.107091
0.0442834
0.0360202
0.0426163
0.0689757
0.0528679
0.070929
0.0687325
0.0596065
0.0962045
0.0806153
0.048792
0.0605471
0.0893365
0.0967218
0.115549
0.121135
0.126189
0.125626
0.129765
0.130812
0.131532
0.123748
0.131648
0.13177
0.131707
0.131513
0.131593
0.122687
0.131196
0.1225
0.131053
0.131132
0.122121
0.122483
0.132687
0.133013
0.133378
0.13374
0.134017
0.134339
0.134148
0.133807
0.133395
0.133107
0.128364
0.131909
0.132934
0.132617
0.13236
0.131891
0.130184
0.131616
0.131135
0.130431
0.129152
0.127245
0.125225
0.124073
0.122819
0.119098
0.117413
0.11658
0.116068
0.1157
0.115911
0.11554
0.115504
0.115768
0.116503
0.117179
0.117925
0.118683
0.11943
0.120171
0.120359
0.12031
0.119852
0.11876
0.117553
0.115619
0.11399
0.111711
0.109294
0.106963
0.103745
0.0991564
0.0976836
0.0945035
0.0916205
0.0890738
0.0869479
0.0852889
0.0839193
0.0817918
0.0798082
0.0466082
0.0254798
0.018621
0.0634477
0.109507
0.0727139
0.0633057
0.0891892
0.0852161
0.0718827
0.0718864
0.0883099
0.0717862
0.0725875
0.0623257
0.0718338
0.0718512
0.0855995
0.100674
0.113675
0.123868
0.12591
0.128437
0.125968
0.125392
0.124115
0.124084
0.132078
0.132193
0.132221
0.123143
0.123008
0.132319
0.132422
0.132273
0.122334
0.122302
0.131795
0.132451
0.122883
0.133446
0.133738
0.12283
0.134366
0.123553
0.133816
0.126082
0.132334
0.131424
0.129329
0.130647
0.131245
0.131409
0.131339
0.131113
0.131072
0.130853
0.129359
0.128911
0.126665
0.12459
0.122927
0.121841
0.118836
0.116773
0.115311
0.114549
0.114331
0.11433
0.114335
0.114317
0.114371
0.114689
0.115296
0.117053
0.117004
0.117788
0.116728
0.119315
0.118508
0.119386
0.118971
0.117912
0.116649
0.114735
0.114229
0.110914
0.108547
0.106304
0.101702
0.100042
0.0969981
0.0938457
0.0910144
0.0885387
0.0864247
0.0847913
0.0834028
0.0812936
0.0793811
0.0878656
0.047675
0.0448624
0.0508388
0.0719733
0.0709996
0.0877232
0.100491
0.093398
0.0910255
0.103226
0.101386
0.102579
0.0808167
0.0913693
0.075403
0.0850058
0.10286
0.11155
0.117047
0.122954
0.125753
0.12825
0.13024
0.125503
0.1252
0.125152
0.131859
0.124994
0.13237
0.132639
0.132651
0.132773
0.132857
0.13276
0.13288
0.133012
0.133211
0.122946
0.133571
0.122976
0.122613
0.122829
0.134174
0.133811
0.132916
0.129658
0.128071
0.12836
0.129516
0.130807
0.130688
0.130439
0.130283
0.12974
0.129238
0.129131
0.127103
0.125008
0.123358
0.121479
0.118651
0.11723
0.115949
0.114322
0.112981
0.112184
0.11219
0.112527
0.11284
0.112951
0.113072
0.113442
0.114079
0.114856
0.115892
0.116658
0.117269
0.118016
0.118204
0.118298
0.117924
0.116902
0.115372
0.113685
0.112058
0.109945
0.107612
0.105348
0.101974
0.098961
0.0960504
0.0930503
0.0902852
0.0878837
0.0857775
0.0841766
0.082775
0.0806975
0.0788547
0.102199
0.0689792
0.064664
0.0645161
0.0729324
0.0839224
0.100214
0.106112
0.10353
0.104989
0.115295
0.10422
0.0976141
0.104844
0.0987603
0.101504
0.0981887
0.107767
0.118482
0.12318
0.122861
0.126374
0.127888
0.130341
0.125875
0.131374
0.131283
0.13127
0.125349
0.131775
0.12488
0.124532
0.132689
0.133137
0.123778
0.133121
0.133335
0.133523
0.133739
0.123242
0.134254
0.134319
0.134087
0.123641
0.132891
0.129245
0.127527
0.127943
0.127804
0.12773
0.12794
0.128371
0.127834
0.127775
0.126633
0.12623
0.125681
0.123855
0.122281
0.120722
0.119101
0.115695
0.114137
0.113231
0.113099
0.110565
0.11014
0.110337
0.111955
0.112521
0.111574
0.111752
0.112163
0.112842
0.113617
0.114521
0.11547
0.11605
0.116714
0.116981
0.117112
0.116827
0.116735
0.114219
0.112589
0.110927
0.10893
0.106615
0.104288
0.0992875
0.0978653
0.0950867
0.0922221
0.0895183
0.0871891
0.0850878
0.0835057
0.0821207
0.0800758
0.0782958
0.105718
0.0871872
0.0788487
0.075543
0.0821532
0.0934542
0.103168
0.106869
0.108699
0.112558
0.117339
0.115496
0.108264
0.103556
0.108904
0.103645
0.109632
0.114998
0.119339
0.12307
0.125578
0.123781
0.124254
0.125727
0.12593
0.130788
0.130721
0.130263
0.129786
0.130315
0.125059
0.130555
0.131173
0.124973
0.131893
0.132279
0.125159
0.133638
0.133995
0.13419
0.134177
0.123696
0.133563
0.13269
0.12592
0.127967
0.12641
0.125979
0.125359
0.125251
0.125554
0.125408
0.125151
0.12482
0.124082
0.123348
0.122528
0.120972
0.119366
0.11611
0.114189
0.111489
0.111254
0.111603
0.109307
0.108402
0.108177
0.10853
0.109125
0.109755
0.110885
0.110415
0.110852
0.111569
0.11237
0.113326
0.114032
0.1146
0.115407
0.116227
0.115892
0.115674
0.114447
0.113062
0.111443
0.109766
0.10787
0.105557
0.103121
0.0997533
0.0967419
0.094112
0.0912699
0.0887121
0.0864474
0.084359
0.0827888
0.0814377
0.0794271
0.0777044
0.106677
0.0989683
0.0897684
0.0846592
0.0888623
0.0959078
0.10102
0.105254
0.109592
0.114681
0.120379
0.119553
0.116729
0.117236
0.111222
0.113456
0.117087
0.120359
0.122381
0.1237
0.125273
0.120916
0.126628
0.127997
0.129469
0.129961
0.130448
0.124487
0.127544
0.12414
0.127278
0.127327
0.124693
0.129775
0.125583
0.131605
0.132623
0.133077
0.133372
0.133909
0.13377
0.133184
0.131063
0.125162
0.126139
0.126153
0.122344
0.120732
0.120134
0.120032
0.120499
0.120486
0.120425
0.121912
0.119314
0.120272
0.117677
0.115751
0.114484
0.112771
0.111003
0.109518
0.108363
0.107779
0.106953
0.106299
0.106243
0.106725
0.10739
0.108105
0.108671
0.10904
0.109497
0.110266
0.111091
0.112097
0.114042
0.11329
0.113855
0.114219
0.114398
0.114214
0.114508
0.11181
0.110258
0.108564
0.106741
0.104429
0.101886
0.0985186
0.0955965
0.0931122
0.0902953
0.0878031
0.0856635
0.0835932
0.0820322
0.0807024
0.0787511
0.0770815
0.106912
0.104041
0.0978791
0.0927933
0.0940542
0.096915
0.0984428
0.101411
0.107328
0.11407
0.119942
0.123923
0.124408
0.122184
0.120511
0.123316
0.124797
0.122584
0.125285
0.124863
0.12481
0.124338
0.124952
0.126457
0.127741
0.123922
0.128006
0.126813
0.125517
0.125064
0.124875
0.125288
0.125872
0.126756
0.128113
0.130926
0.132033
0.126448
0.132738
0.132649
0.132079
0.130473
0.124935
0.125132
0.124606
0.120569
0.116974
0.117175
0.116609
0.116552
0.116702
0.116464
0.116428
0.116508
0.115851
0.114885
0.113756
0.112532
0.111225
0.109495
0.107901
0.106666
0.105768
0.10525
0.104525
0.104199
0.104225
0.104827
0.105601
0.106446
0.107109
0.107562
0.108111
0.108916
0.109782
0.110793
0.111472
0.111983
0.112504
0.11281
0.113058
0.112929
0.111872
0.110517
0.109027
0.10734
0.10547
0.102256
0.100637
0.0972782
0.0944264
0.0919583
0.0892594
0.0868607
0.0847233
0.0827883
0.0812428
0.0799344
0.0780405
0.0764307
0.106885
0.105298
0.101998
0.0983754
0.0976013
0.0971274
0.096116
0.0969283
0.10163
0.109599
0.117606
0.124683
0.126718
0.121988
0.125172
0.125489
0.125304
0.126008
0.122165
0.124845
0.119203
0.122648
0.123053
0.124868
0.11997
0.120395
0.126363
0.122335
0.123655
0.122746
0.122768
0.123485
0.123255
0.124773
0.126297
0.128013
0.126988
0.131677
0.131639
0.126543
0.129867
0.125028
0.124435
0.12076
0.11875
0.116476
0.114567
0.11344
0.113006
0.113016
0.113793
0.112686
0.112653
0.112485
0.112099
0.111261
0.110087
0.108925
0.10846
0.106472
0.10512
0.104012
0.103246
0.102801
0.102362
0.101983
0.10214
0.102865
0.103748
0.104729
0.104885
0.105992
0.106641
0.107529
0.108434
0.109437
0.110092
0.110631
0.111129
0.111401
0.113012
0.112946
0.110464
0.109177
0.107748
0.106024
0.104161
0.101886
0.0992333
0.0960127
0.0932352
0.090786
0.0882003
0.0858889
0.0837897
0.0819415
0.0804236
0.0790732
0.0772874
0.0757289
0.10671
0.104939
0.102409
0.0996951
0.0972083
0.0937393
0.0908806
0.091005
0.0945227
0.101977
0.111277
0.120446
0.124428
0.125974
0.126004
0.126847
0.126498
0.124696
0.124197
0.122278
0.120641
0.119725
0.117783
0.122182
0.123708
0.121462
0.124878
0.122205
0.122015
0.120758
0.12096
0.122239
0.122879
0.123673
0.1247
0.125799
0.12663
0.130152
0.129573
0.128197
0.125642
0.120605
0.120113
0.117793
0.114369
0.11289
0.110767
0.109922
0.109643
0.109699
0.110609
0.109027
0.108979
0.109009
0.108499
0.107692
0.106684
0.105667
0.104773
0.102847
0.102405
0.101352
0.100633
0.100253
0.0997898
0.0996262
0.0999312
0.100768
0.101774
0.10284
0.10375
0.104373
0.1051
0.106052
0.107034
0.108036
0.108684
0.109259
0.10973
0.109972
0.110239
0.111332
0.109044
0.107774
0.106413
0.104629
0.102759
0.100456
0.0978161
0.0947171
0.0920135
0.0896034
0.0871121
0.0848903
0.0828501
0.0810656
0.0795738
0.078208
0.0765098
0.0749816
0.106373
0.103667
0.100188
0.096855
0.0924721
0.0866158
0.0827023
0.0831002
0.0870218
0.0936891
0.102944
0.111851
0.118723
0.121918
0.123707
0.123981
0.118791
0.117434
0.120412
0.115071
0.116295
0.115988
0.117386
0.118917
0.120098
0.120698
0.120957
0.121849
0.121355
0.120103
0.119344
0.120599
0.121396
0.122938
0.12471
0.125514
0.125713
0.12559
0.124174
0.123313
0.119694
0.117989
0.116338
0.113812
0.110106
0.108062
0.106316
0.106332
0.105624
0.106455
0.105934
0.105644
0.105596
0.105597
0.104846
0.104389
0.103452
0.1025
0.101552
0.100584
0.0995616
0.0985746
0.0978685
0.0951037
0.097177
0.0971984
0.0976262
0.0986037
0.0997455
0.100902
0.101862
0.102654
0.103474
0.104524
0.105543
0.106571
0.107267
0.107837
0.108299
0.108524
0.108724
0.10864
0.108082
0.106343
0.104992
0.103195
0.101255
0.0989501
0.0963981
0.0933862
0.0907729
0.0884106
0.0860034
0.0838657
0.0818826
0.0801639
0.0786976
0.0773297
0.075704
0.0742097
0.105763
0.101348
0.0958231
0.090624
0.0840778
0.0765723
0.0724947
0.0740958
0.0793856
0.0863876
0.0948556
0.103629
0.110997
0.11518
0.117963
0.115374
0.116871
0.114994
0.113816
0.113219
0.111709
0.112073
0.113365
0.114279
0.11647
0.118152
0.119306
0.120268
0.119024
0.118042
0.117114
0.117679
0.118988
0.120935
0.123732
0.124711
0.125695
0.124388
0.122878
0.11894
0.11661
0.11439
0.111165
0.107561
0.104308
0.103534
0.102643
0.102381
0.102507
0.101561
0.102376
0.102111
0.102109
0.102137
0.101758
0.101038
0.100116
0.0991831
0.0982607
0.0973337
0.096567
0.0957236
0.0949837
0.0948248
0.0944867
0.0946726
0.0952763
0.0963597
0.0976246
0.0989104
0.0999756
0.100834
0.101761
0.102897
0.103993
0.10502
0.105782
0.106392
0.106842
0.107036
0.107168
0.107015
0.106082
0.104824
0.103538
0.101672
0.099722
0.097395
0.0949168
0.0920341
0.0894986
0.0871975
0.0848777
0.0828208
0.0808959
0.0792343
0.0777981
0.0764347
0.0748745
0.0734151
0.104642
0.0973145
0.0885979
0.0808755
0.0727609
0.0647803
0.0615418
0.0648446
0.0720273
0.0801279
0.0882769
0.0963187
0.103443
0.107876
0.110214
0.109713
0.108678
0.107846
0.108933
0.107964
0.107767
0.1085
0.109848
0.111501
0.113182
0.115033
0.116271
0.117903
0.117203
0.115681
0.113288
0.115095
0.11656
0.118754
0.121481
0.122669
0.123435
0.121713
0.119454
0.115556
0.111833
0.108527
0.105723
0.1029
0.100447
0.0985173
0.09779
0.0951434
0.0982663
0.0988158
0.0982387
0.0981919
0.0982965
0.09838
0.0980202
0.0974385
0.0965468
0.0956573
0.0914803
0.0939838
0.0934688
0.089023
0.0920565
0.0918722
0.0917353
0.0920979
0.0928633
0.0940759
0.095447
0.096879
0.0980457
0.0989536
0.0999973
0.101195
0.102333
0.103428
0.104224
0.104845
0.105316
0.105505
0.105596
0.105362
0.104453
0.103251
0.101915
0.100081
0.0981274
0.0958307
0.0933624
0.0906598
0.0882147
0.085962
0.0837353
0.0817444
0.0798923
0.0782823
0.0768739
0.075517
0.0740282
0.0725955
0.102475
0.0905232
0.0775736
0.0678594
0.0593133
0.0523183
0.0507747
0.0559076
0.064937
0.0745319
0.083005
0.090418
0.0967793
0.100901
0.102992
0.102935
0.10247
0.102403
0.10296
0.102803
0.103263
0.104334
0.105392
0.106525
0.107644
0.109993
0.11058
0.112786
0.112158
0.110105
0.110897
0.111757
0.1141
0.116336
0.118688
0.119713
0.119637
0.118349
0.114422
0.110313
0.106161
0.102678
0.0997355
0.0969068
0.0909706
0.0932678
0.0927613
0.0935461
0.0937463
0.094263
0.0938835
0.0940045
0.0942034
0.0943637
0.0940835
0.0936391
0.0928039
0.0919647
0.0914008
0.0905719
0.090281
0.089905
0.0890568
0.088918
0.0889834
0.0895246
0.090436
0.0917447
0.093196
0.0947028
0.0961265
0.0970283
0.0981528
0.0994163
0.100604
0.101716
0.102587
0.103246
0.10371
0.103873
0.103926
0.103623
0.102809
0.101597
0.100218
0.0984481
0.0964753
0.0941692
0.0917943
0.0892461
0.0869148
0.0847104
0.0825835
0.0806441
0.0788673
0.0773094
0.0759287
0.0745777
0.0731673
0.0717502
0.0980853
0.0789642
0.0621677
0.0519605
0.0450062
0.0403575
0.0407483
0.0473373
0.0579069
0.0690206
0.0783305
0.0855627
0.091193
0.0947579
0.0966318
0.0968308
0.0968872
0.0972705
0.0979288
0.0983932
0.0991883
0.100398
0.100794
0.101311
0.101552
0.102055
0.104086
0.103335
0.105352
0.104977
0.105589
0.107627
0.110933
0.113517
0.115095
0.115535
0.11498
0.112189
0.108393
0.104328
0.100023
0.0965009
0.0934381
0.0907463
0.0890898
0.0878608
0.0876608
0.0885589
0.0890204
0.0896665
0.0894024
0.0896485
0.0899416
0.0901723
0.0900105
0.0897324
0.0889347
0.0881717
0.0876794
0.0871029
0.0870558
0.0866694
0.0860019
0.0859485
0.0862073
0.0869158
0.087972
0.0893939
0.0909202
0.0925058
0.0906722
0.0950607
0.0962705
0.0975565
0.0987973
0.0999505
0.100843
0.101542
0.10202
0.102205
0.102214
0.101865
0.101001
0.0998489
0.0985154
0.0967455
0.094812
0.092495
0.0902137
0.0878202
0.0855948
0.0834428
0.0814103
0.0795289
0.0778274
0.0763148
0.0749527
0.0736239
0.0722333
0.0708842
0.0897616
0.0612796
0.0431539
0.0353451
0.0316889
0.0299571
0.031884
0.0391089
0.0505946
0.0630567
0.0735497
0.0810148
0.0862406
0.0893883
0.0910167
0.0915056
0.0919726
0.0927137
0.0935737
0.094245
0.0949343
0.0961742
0.0947701
0.0949746
0.0933762
0.0934693
0.0944687
0.0964992
0.0960103
0.0984994
0.100656
0.104132
0.107018
0.109698
0.110749
0.110478
0.109235
0.10562
0.101714
0.097675
0.0891289
0.0902479
0.087406
0.0846577
0.0831393
0.0824869
0.0825848
0.0835532
0.0841853
0.0848509
0.0848455
0.0852097
0.0855793
0.0858796
0.0858496
0.0803263
0.0850039
0.08432
0.0839559
0.0836133
0.0835531
0.0833497
0.0829451
0.0830067
0.0834463
0.08432
0.0855109
0.0870226
0.0886088
0.0902971
0.0919056
0.0930421
0.0943162
0.0956603
0.0969153
0.0981008
0.0990585
0.0997645
0.100215
0.100405
0.100394
0.0999848
0.0991396
0.0980584
0.0967416
0.0950091
0.0930656
0.0908143
0.088608
0.0863782
0.0842651
0.0821662
0.0802221
0.0783946
0.076771
0.0752969
0.073959
0.0726557
0.0712862
0.0699981
0.0704768
0.0375647
0.0243954
0.0211652
0.0210005
0.0217797
0.0245203
0.031382
0.0428688
0.056222
0.0680585
0.0760506
0.0811791
0.0841047
0.0856806
0.086434
0.0872235
0.0882044
0.089137
0.0896847
0.0898718
0.0897019
0.0881024
0.0867894
0.0856886
0.084534
0.085625
0.0880727
0.0903424
0.0923834
0.0957164
0.0979876
0.102814
0.104721
0.105438
0.104343
0.09995
0.0984884
0.0943415
0.0904449
0.0867079
0.0839978
0.0742364
0.078655
0.0774629
0.0772606
0.0776143
0.0786124
0.079368
0.0801336
0.0802884
0.0807391
0.0811808
0.0815451
0.0816343
0.0818623
0.0810179
0.08044
0.0802341
0.0801442
0.0800607
0.0801248
0.0798993
0.0800851
0.0806983
0.0817236
0.083038
0.0846432
0.086286
0.0880441
0.0896446
0.090998
0.0923154
0.0936982
0.0949957
0.0961845
0.0971659
0.097921
0.0983727
0.0985509
0.098504
0.0980752
0.0972421
0.0961815
0.0949332
0.0932377
0.0912955
0.0891309
0.0870016
0.0849131
0.0829303
0.0808645
0.079026
0.0772504
0.0756998
0.074256
0.0729521
0.0716675
0.0703287
0.069093
0.00516227
0.00649491
0.00763438
0.00960376
0.012133
0.0148508
0.0182288
0.0237506
0.033243
0.0453383
0.0573912
0.0660738
0.0712628
0.0741424
0.0758949
0.0771755
0.0785287
0.0798646
0.0807006
0.0805561
0.0793005
0.0770559
0.074327
0.0722309
0.0712565
0.071547
0.0734871
0.0764764
0.079747
0.0834528
0.0875398
0.0913934
0.0944193
0.0960249
0.0901328
0.0919999
0.0892438
0.0857737
0.0814672
0.0780874
0.0752738
0.0734918
0.0705421
0.0689644
0.0683926
0.068744
0.0695773
0.0707288
0.0716617
0.0726705
0.0729534
0.0735003
0.0740242
0.0744646
0.0747454
0.0748452
0.0744517
0.0741231
0.0741804
0.0741517
0.0744112
0.0750335
0.075006
0.0753802
0.07627
0.0775279
0.0790059
0.0807279
0.0824839
0.0843688
0.0859954
0.0876016
0.089003
0.0904375
0.0917607
0.09298
0.0939758
0.0947166
0.0951994
0.0953753
0.0952881
0.0948264
0.0940458
0.0930664
0.0918849
0.0902939
0.0884294
0.0863552
0.0843877
0.0825171
0.0806488
0.0787356
0.0770847
0.0753817
0.0739307
0.0725614
0.0712981
0.070055
0.068766
0.0675991
0.000760106
0.00152949
0.00263425
0.00421355
0.00596496
0.00766363
0.00961815
0.0129819
0.018583
0.026736
0.0357109
0.0439377
0.0498196
0.0535819
0.0564155
0.0589478
0.0613195
0.0629692
0.0630237
0.0612486
0.0583272
0.055398
0.0535615
0.0533646
0.0547996
0.0574655
0.0611276
0.0652543
0.0693579
0.0732583
0.0766037
0.0790227
0.0801485
0.0797847
0.0770428
0.0744101
0.0715457
0.0687894
0.0653
0.0628883
0.0616436
0.0598986