/*--------------------------------*- C++ -*----------------------------------*\
  =========                 |
  \\      /  F ield         | OpenFOAM: The Open Source CFD Toolbox
   \\    /   O peration     | Website:  https://openfoam.org
    \\  /    A nd           | Version:  6
     \\/     M anipulation  |
\*---------------------------------------------------------------------------*/
FoamFile
{
    version     2.0;
    format      ascii;
    class       volScalarField;
    location    "0.1";
    object      H2O2;
}
// * * * * * * * * * * * * * * * * * * * * * * * * * * * * * * * * * * * * * //

dimensions      [0 0 0 0 0 0 0];

internalField   nonuniform List<scalar> 
8000
(
1.38227e-06
7.21969e-06
1.55797e-05
2.93674e-05
3.92554e-05
3.39848e-05
2.27728e-05
1.4941e-05
9.0802e-06
4.84354e-06
2.52159e-06
2.10601e-06
3.34579e-06
9.14545e-06
9.06521e-06
9.55035e-06
1.35927e-05
4.19522e-05
1.43599e-05
1.55811e-05
1.52228e-05
1.26098e-05
9.50189e-06
8.38615e-06
8.20725e-06
1.28729e-05
1.63002e-05
1.58662e-05
1.77077e-05
0.000183908
5.8858e-05
7.25741e-06
6.01344e-06
5.88812e-06
6.32006e-06
6.78083e-06
7.01854e-06
6.99522e-06
7.00115e-06
6.97666e-06
5.91938e-06
4.95387e-06
4.17902e-06
3.48827e-06
2.93077e-06
2.63471e-06
3.32247e-06
6.33326e-06
1.99341e-05
0.000194327
0.000117368
6.99249e-05
5.89235e-05
6.04742e-05
6.40064e-05
6.88746e-05
7.27331e-05
7.31555e-05
6.95361e-05
6.27554e-05
4.12222e-05
3.17492e-05
1.15023e-05
9.2439e-07
7.03166e-07
9.16466e-08
6.68151e-07
4.4502e-07
4.51597e-07
4.59963e-07
1.35829e-06
4.76921e-07
4.74489e-07
8.80475e-07
8.91423e-07
4.75414e-07
4.76112e-07
4.69029e-07
4.59711e-07
4.52378e-07
4.55731e-07
4.54299e-07
4.64662e-07
8.59143e-07
8.92546e-07
9.96048e-07
1.12516e-06
1.27627e-06
4.41551e-06
1.62796e-06
1.83152e-06
2.05638e-06
2.25539e-06
2.38472e-06
2.71322e-06
2.90834e-06
3.02548e-06
3.11299e-06
3.07061e-06
3.38287e-06
1.35536e-06
7.58165e-06
1.57733e-05
3.057e-05
4.58223e-05
3.37957e-05
2.17756e-05
1.43429e-05
8.6725e-06
4.51616e-06
2.37423e-06
2.28066e-06
4.53018e-06
1.28759e-05
1.31818e-05
1.1194e-05
1.36003e-05
1.43834e-05
1.47918e-05
1.47604e-05
1.4781e-05
1.2345e-05
9.36257e-06
8.48007e-06
8.5317e-06
1.42665e-05
1.6734e-05
1.57659e-05
1.56374e-05
2.36129e-05
8.84669e-06
6.2063e-06
5.66259e-06
5.69968e-06
6.17513e-06
6.6533e-06
6.91257e-06
6.91334e-06
7.02379e-06
1.69358e-05
6.10449e-06
4.92133e-06
4.13065e-06
3.45758e-06
2.93791e-06
2.71769e-06
3.45854e-06
6.34823e-06
1.85269e-05
3.11667e-05
4.97495e-05
5.59799e-05
5.94188e-05
6.16954e-05
6.48306e-05
6.90291e-05
7.20961e-05
7.18783e-05
6.79728e-05
6.14199e-05
4.03579e-05
3.09051e-05
1.09485e-05
1.22272e-06
2.01597e-07
9.27912e-08
6.67246e-07
4.4632e-07
4.52995e-07
4.61666e-07
4.63287e-07
4.78988e-07
4.75627e-07
8.81886e-07
8.92522e-07
4.7626e-07
4.77381e-07
4.69954e-07
4.60684e-07
4.52707e-07
4.56523e-07
4.54891e-07
4.65754e-07
8.60591e-07
8.93565e-07
9.98591e-07
1.12814e-06
1.27901e-06
1.42709e-06
1.6309e-06
1.83398e-06
2.05903e-06
2.25776e-06
2.38577e-06
2.71597e-06
2.9106e-06
3.02747e-06
3.11512e-06
3.07032e-06
3.38493e-06
1.52873e-06
9.29953e-06
2.50866e-05
1.88655e-05
3.59194e-05
2.66476e-05
1.80775e-05
2.30458e-05
2.07913e-05
4.76119e-06
1.34242e-05
2.44104e-06
5.8013e-06
1.62818e-05
1.65632e-05
1.53155e-05
1.26933e-05
1.45741e-05
1.43986e-05
5.09313e-06
1.40516e-05
1.18531e-05
9.09578e-06
8.66555e-06
9.12406e-06
1.92402e-05
1.87959e-05
1.55929e-05
1.26693e-05
1.02778e-05
6.63253e-06
5.29794e-06
5.24694e-06
5.42366e-06
5.99777e-06
6.59005e-06
6.8358e-06
6.84869e-06
6.64256e-06
6.36063e-06
5.54332e-06
4.74954e-06
4.03794e-06
3.39337e-06
2.965e-06
2.91488e-06
3.78528e-06
6.92424e-06
1.74009e-05
2.74992e-05
3.56547e-05
5.83602e-05
6.3905e-05
6.4614e-05
6.61581e-05
6.89072e-05
7.06488e-05
6.93154e-05
6.49185e-05
5.20253e-05
3.85841e-05
2.90593e-05
9.80417e-06
9.68434e-07
2.36778e-07
9.53777e-08
4.4798e-07
4.49341e-07
4.55991e-07
4.65383e-07
4.68071e-07
4.83129e-07
2.58355e-06
8.85058e-07
8.95001e-07
2.09586e-06
4.80205e-07
4.72014e-07
4.62764e-07
1.19751e-06
4.58303e-07
4.56183e-07
4.68209e-07
8.63786e-07
2.91234e-06
1.00424e-06
1.13456e-06
1.28493e-06
1.44525e-06
1.637e-06
1.83934e-06
2.06481e-06
1.13527e-05
1.24213e-05
2.72201e-06
2.91554e-06
3.03183e-06
3.1198e-06
2.0124e-05
3.38949e-06
2.01091e-06
1.14988e-05
2.18751e-05
2.73005e-05
2.54835e-05
2.01814e-05
1.3952e-05
9.39484e-06
5.42689e-06
2.58979e-06
1.60051e-06
1.79008e-06
4.02175e-06
5.76872e-05
2.58483e-05
1.70587e-05
1.14934e-05
1.27616e-05
1.56307e-05
1.50861e-05
1.41963e-05
1.11697e-05
8.79712e-06
7.97422e-06
9.72641e-06
8.30689e-05
2.2911e-05
1.52848e-05
1.09825e-05
7.69095e-06
5.58085e-06
4.82098e-06
4.98949e-06
5.18381e-06
5.79792e-06
1.54864e-05
6.79617e-06
1.53635e-05
6.58958e-06
6.12318e-06
5.3983e-06
4.66594e-06
3.92453e-06
3.30038e-06
2.85508e-06
3.20489e-06
4.5195e-06
7.90251e-06
1.7559e-05
2.46647e-05
3.59869e-05
6.24844e-05
0.000150128
6.74092e-05
6.6582e-05
6.78109e-05
6.83821e-05
6.59565e-05
6.10295e-05
4.21175e-05
3.61268e-05
1.72822e-05
8.24623e-06
7.99887e-07
2.96837e-07
1.00263e-07
4.51081e-07
4.54412e-07
4.60428e-07
4.7053e-07
1.94176e-06
8.898e-07
8.90191e-07
8.90652e-07
8.98895e-07
4.87387e-07
4.8476e-07
4.75184e-07
4.65965e-07
4.59613e-07
4.61125e-07
4.58115e-07
4.72089e-07
8.68621e-07
9.08506e-07
1.01307e-06
1.14425e-06
1.29381e-06
1.4613e-06
1.646e-06
1.84743e-06
2.0735e-06
2.27649e-06
2.43102e-06
2.73135e-06
2.92299e-06
3.03843e-06
3.12689e-06
3.12819e-06
3.39663e-06
1.82283e-06
1.44711e-05
8.59478e-05
3.07413e-05
2.13163e-05
1.56673e-05
1.03952e-05
6.1618e-06
3.14232e-06
1.57223e-06
8.40461e-06
8.50224e-06
9.42981e-06
1.52363e-05
1.68138e-05
1.33463e-05
9.6465e-06
1.16764e-05
1.56224e-05
1.56611e-05
1.34965e-05
1.03254e-05
8.66693e-06
8.4772e-06
1.04952e-05
1.92116e-05
1.8008e-05
1.37249e-05
9.83595e-06
6.97396e-06
5.27932e-06
4.76841e-06
4.98203e-06
5.10122e-06
5.41088e-06
5.75993e-06
5.99702e-06
6.16979e-06
6.2659e-06
2.18547e-05
5.31572e-06
4.57454e-06
3.77756e-06
3.01634e-06
2.99454e-06
3.72625e-06
5.72936e-06
9.38768e-06
1.86221e-05
2.86155e-05
3.63795e-05
6.04167e-05
7.65831e-05
6.51821e-05
6.48792e-05
6.54849e-05
6.55686e-05
6.22172e-05
5.01323e-05
3.88793e-05
3.30528e-05
1.45627e-05
6.44158e-06
1.36841e-07
1.95781e-07
6.95187e-07
4.57127e-07
4.62082e-07
1.25817e-06
4.77764e-07
4.82354e-07
8.96775e-07
8.97061e-07
8.98541e-07
9.04477e-07
4.95837e-07
4.90838e-07
4.79486e-07
4.69836e-07
4.64716e-07
4.64935e-07
1.71567e-06
4.77612e-07
2.89545e-06
9.21671e-07
1.02474e-06
1.15717e-06
1.30563e-06
1.47844e-06
1.65775e-06
1.85817e-06
2.08499e-06
2.29245e-06
2.46765e-06
2.7433e-06
2.93274e-06
3.04722e-06
3.13622e-06
3.17685e-06
3.40558e-06
1.46873e-06
4.26511e-05
3.03991e-05
2.18035e-05
1.579e-05
1.17543e-05
7.36349e-06
1.6013e-05
1.98373e-06
1.2448e-06
1.13186e-06
1.40768e-06
2.09471e-06
1.11051e-05
1.26347e-05
2.88514e-05
3.82912e-05
3.461e-05
4.9043e-05
1.53245e-05
1.24567e-05
9.51527e-06
1.22701e-05
1.62426e-05
1.13316e-05
1.65961e-05
1.5801e-05
1.32401e-05
1.02106e-05
6.99739e-06
5.54524e-06
5.11713e-06
4.85938e-06
5.32581e-06
5.48286e-06
5.65949e-06
5.80768e-06
5.9156e-06
5.90613e-06
5.26443e-06
4.65711e-06
4.16895e-06
1.08544e-05
3.01094e-06
3.12734e-06
4.5435e-06
7.96479e-06
1.0982e-05
1.93205e-05
0.000108454
3.59421e-05
5.7745e-05
0.000142094
6.306e-05
6.21625e-05
6.22615e-05
6.23289e-05
5.84051e-05
3.97018e-05
3.50925e-05
2.92314e-05
1.15787e-05
4.63861e-06
1.32781e-07
2.19164e-07
6.89206e-07
4.66636e-07
4.72201e-07
4.77732e-07
4.87262e-07
4.93385e-07
9.0753e-07
9.08579e-07
9.10221e-07
9.1241e-07
5.04648e-07
4.97837e-07
4.84991e-07
4.74819e-07
4.69758e-07
4.69771e-07
1.84908e-06
8.83955e-07
8.86661e-07
9.35072e-07
1.03916e-06
1.17334e-06
1.32044e-06
1.49642e-06
1.67215e-06
1.8715e-06
2.0991e-06
2.3107e-06
1.36553e-05
2.75762e-06
2.94315e-06
3.05814e-06
3.14765e-06
3.21648e-06
3.41606e-06
1.10954e-06
1.23271e-05
1.79417e-05
2.7205e-05
1.13836e-05
8.5597e-06
1.94879e-05
2.07163e-05
1.11137e-05
1.32811e-06
1.33493e-06
1.83828e-06
1.17351e-05
7.51544e-06
8.74911e-06
8.60705e-06
1.10129e-05
1.35342e-05
1.5283e-05
1.47354e-05
2.90496e-05
8.82503e-06
7.56654e-06
8.34737e-06
1.13596e-05
6.40369e-05
6.11845e-05
1.31148e-05
5.10191e-05
8.17532e-06
6.3074e-06
5.55493e-06
5.60703e-06
5.48513e-06
5.49208e-06
5.5217e-06
6.00949e-06
5.50817e-06
5.41415e-06
5.38236e-06
1.36376e-05
3.83947e-06
3.21886e-06
2.92528e-06
3.31015e-06
5.44182e-06
7.05701e-05
1.37642e-05
1.87525e-05
2.42555e-05
3.28294e-05
4.32304e-05
0.000135836
5.96533e-05
5.85878e-05
5.8353e-05
5.83816e-05
0.00011862
3.57761e-05
3.08389e-05
2.44167e-05
8.58465e-06
8.8615e-07
7.38741e-07
3.31474e-07
4.67606e-07
4.79018e-07
4.86647e-07
4.9012e-07
4.98852e-07
5.04684e-07
9.23238e-07
9.26063e-07
9.25808e-07
9.22465e-07
9.27443e-07
5.06038e-07
4.91913e-07
4.80988e-07
1.80367e-06
4.75656e-07
4.75007e-07
8.90914e-07
9.00993e-07
9.49323e-07
1.05627e-06
1.19269e-06
4.30003e-06
1.51563e-06
1.68714e-06
1.88738e-06
2.1157e-06
2.33084e-06
2.53362e-06
2.77428e-06
2.95551e-06
3.07115e-06
3.16105e-06
3.25047e-06
3.42789e-06
4.45354e-06
2.28972e-05
2.92405e-05
1.09601e-05
7.59711e-06
5.26004e-06
1.97872e-05
2.70321e-06
1.54894e-06
1.48e-06
8.26015e-06
1.28203e-05
5.899e-06
2.05424e-05
7.89892e-06
9.29557e-06
1.2356e-05
1.46363e-05
1.51132e-05
1.35727e-05
1.03453e-05
9.20242e-06
7.74838e-06
1.9791e-05
1.30544e-05
1.65191e-05
1.50436e-05
1.30807e-05
1.11838e-05
8.67848e-06
3.77737e-05
6.70913e-06
6.58598e-06
6.31199e-06
6.08324e-06
1.73359e-05
6.10588e-06
5.92428e-06
5.54471e-06
5.11461e-06
4.26931e-06
3.6386e-06
3.198e-06
3.07223e-06
3.47263e-06
5.16428e-06
8.30495e-06
1.02824e-05
1.74488e-05
2.17263e-05
2.98592e-05
3.59255e-05
0.00012672
4.91781e-05
4.83284e-05
4.79897e-05
4.7583e-05
3.72959e-05
3.14356e-05
1.74402e-05
1.22079e-05
7.73864e-06
5.85814e-07
3.48041e-07
1.25771e-07
4.79033e-07
4.94752e-07
5.04834e-07
5.04452e-07
2.64678e-06
3.0138e-06
9.4484e-07
9.4791e-07
9.4434e-07
3.13844e-06
9.37621e-07
9.36702e-07
5.0071e-07
4.88248e-07
1.96135e-06
4.82721e-07
4.84512e-07
9.00704e-07
9.17619e-07
3.19611e-06
1.07607e-06
1.21515e-06
1.3643e-06
1.53653e-06
1.70461e-06
1.90398e-06
2.13458e-06
2.35303e-06
2.56312e-06
2.79296e-06
2.96977e-06
3.08619e-06
3.17652e-06
3.28082e-06
3.44096e-06
6.34229e-07
5.64023e-06
2.1545e-05
1.81964e-05
4.34715e-06
2.60544e-06
2.21065e-06
1.60797e-06
1.55593e-06
2.02483e-06
1.17494e-05
2.02358e-05
2.94278e-05
1.13056e-05
3.03586e-05
3.25739e-05
5.07605e-05
1.5812e-05
4.9792e-05
1.21926e-05
9.2055e-06
7.47352e-06
6.86152e-06
8.0613e-06
5.80116e-05
7.22968e-05
1.50803e-05
1.39154e-05
5.83767e-05
9.61687e-06
8.58068e-06
8.5017e-06
9.30468e-06
8.96561e-06
7.77351e-06
7.16149e-06
2.81748e-05
6.49281e-06
6.39564e-06
2.58153e-05
4.47638e-06
3.733e-06
3.39356e-06
3.3937e-06
3.72157e-06
4.9411e-06
6.86144e-06
9.60375e-06
1.65141e-05
2.00746e-05
2.37889e-05
3.2071e-05
3.63338e-05
3.87428e-05
0.000113437
3.78699e-05
3.75872e-05
3.28965e-05
2.69081e-05
1.32854e-05
1.51444e-05
3.04022e-06
1.91212e-07
3.54443e-07
7.15277e-07
4.96841e-07
5.14849e-07
5.25962e-07
2.30985e-06
5.34556e-07
9.60672e-07
9.71934e-07
9.72959e-07
9.65793e-07
9.57266e-07
9.52377e-07
9.46705e-07
5.11014e-07
2.23011e-06
4.93677e-07
2.43672e-06
2.66564e-06
9.13721e-07
9.36599e-07
3.27318e-06
1.09939e-06
1.2407e-06
1.39246e-06
1.55917e-06
1.72587e-06
1.92206e-06
2.15558e-06
2.37828e-06
2.59325e-06
2.81349e-06
2.98587e-06
3.10301e-06
3.19489e-06
3.30881e-06
3.45521e-06
2.91431e-07
2.64256e-06
4.87847e-06
1.49008e-05
2.08441e-06
1.47028e-06
7.71465e-06
1.52121e-06
7.73702e-06
1.50147e-05
5.35449e-06
3.01079e-05
1.59085e-05
4.82452e-05
1.50215e-05
1.49172e-05
1.61851e-05
1.61815e-05
4.11779e-05
2.26464e-05
9.85738e-06
7.04689e-06
6.48055e-06
7.5432e-06
1.15009e-05
6.47079e-05
1.45115e-05
1.35683e-05
1.21061e-05
1.0534e-05
1.02241e-05
1.06795e-05
1.58651e-05
6.65876e-05
5.34023e-05
1.05435e-05
9.38418e-06
8.53624e-06
7.76289e-06
6.40423e-06
4.97275e-06
4.17657e-06
3.86326e-06
3.90613e-06
4.54679e-06
5.18558e-06
6.56652e-06
9.3138e-06
1.61938e-05
1.89148e-05
2.14714e-05
2.40291e-05
3.16437e-05
3.45115e-05
3.42497e-05
3.38956e-05
0.000101145
8.57546e-05
1.40863e-05
9.3556e-06
5.38827e-06
7.34906e-07
2.83904e-07
1.41491e-07
8.45966e-07
1.42005e-06
5.37941e-07
5.52479e-07
2.95088e-06
9.9555e-07
9.94282e-07
1.00421e-06
1.00193e-06
9.91198e-07
9.80688e-07
9.7209e-07
3.25521e-06
2.96284e-06
5.08636e-07
5.06421e-07
5.04168e-07
9.24565e-07
9.30594e-07
9.58598e-07
1.01868e-06
1.12689e-06
1.26922e-06
1.42263e-06
1.5834e-06
1.74928e-06
1.94223e-06
2.17978e-06
2.40517e-06
2.62297e-06
2.83607e-06
3.00373e-06
3.12139e-06
3.21515e-06
3.33532e-06
3.47059e-06
4.68903e-08
5.49554e-06
1.11863e-05
1.06484e-05
1.40278e-06
1.34504e-06
1.58028e-06
7.70643e-06
1.09925e-05
1.68415e-05
2.87238e-05
5.16765e-05
3.01277e-05
2.17778e-05
1.64868e-05
1.64826e-05
6.37186e-05
1.52882e-05
1.19443e-05
9.27961e-06
7.47067e-06
6.80591e-06
6.5397e-06
7.27402e-06
9.85048e-06
1.42612e-05
1.43523e-05
1.34282e-05
1.31025e-05
1.20982e-05
1.1869e-05
1.31289e-05
1.55915e-05
1.53086e-05
1.44495e-05
6.74874e-05
1.41789e-05
6.32869e-05
1.04816e-05
4.98113e-05
6.43213e-06
5.04274e-06
4.68644e-06
5.14705e-06
5.33795e-06
5.6494e-06
6.41875e-06
9.01435e-06
7.91324e-05
1.7977e-05
1.93249e-05
2.07755e-05
2.19304e-05
3.0568e-05
9.55167e-05
2.95845e-05
8.40898e-05
1.48413e-05
9.96902e-06
6.01586e-06
9.82181e-07
4.47824e-07
2.63486e-07
7.38605e-07
5.23032e-07
5.52023e-07
5.6594e-07
5.82564e-07
1.03943e-06
3.52667e-06
1.03342e-06
1.0406e-06
1.03532e-06
1.02162e-06
1.00701e-06
9.93984e-07
9.7949e-07
9.69608e-07
5.21367e-07
2.90643e-06
9.42964e-07
9.36147e-07
9.5093e-07
9.84851e-07
1.05214e-06
1.15734e-06
1.30074e-06
1.45454e-06
1.6107e-06
7.65089e-06
1.96464e-06
2.206e-06
2.43494e-06
2.65276e-06
2.86119e-06
3.0241e-06
3.14151e-06
3.23726e-06
3.36406e-06
3.48775e-06
7.06271e-07
5.08685e-06
7.53856e-06
8.33224e-06
1.91591e-06
9.15167e-06
3.09589e-06
1.42712e-05
1.91543e-05
2.31306e-05
3.35523e-05
1.55135e-05
1.65e-05
7.45285e-06
1.61726e-05
1.69591e-05
1.66062e-05
1.43631e-05
1.01597e-05
8.71168e-06
7.01728e-06
6.11241e-06
1.30835e-05
7.29256e-06
9.20465e-06
5.97642e-05
6.91778e-05
1.3471e-05
1.50832e-05
6.73851e-05
1.49469e-05
1.49528e-05
1.54834e-05
1.5258e-05
1.49285e-05
1.78269e-05
1.58112e-05
1.76137e-05
6.2618e-05
1.08461e-05
8.13325e-06
6.60672e-06
6.13656e-06
6.5222e-06
6.77285e-06
6.2112e-06
6.91832e-06
8.22055e-06
1.15814e-05
1.6628e-05
8.05865e-05
8.25211e-05
8.44727e-05
1.89678e-05
1.79496e-05
1.64613e-05
1.40792e-05
1.02739e-05
6.4266e-06
1.25645e-06
2.27523e-07
3.87213e-07
1.74564e-07
5.28494e-07
5.63577e-07
5.94261e-07
3.34684e-06
3.7544e-06
1.08174e-06
1.0741e-06
1.08016e-06
1.08134e-06
1.07321e-06
1.05592e-06
1.03804e-06
1.01898e-06
1.00385e-06
9.87152e-07
9.73761e-07
9.65613e-07
9.55876e-07
9.52929e-07
9.74311e-07
1.01391e-06
1.08918e-06
1.1912e-06
1.33494e-06
1.48883e-06
1.63977e-06
1.80737e-06
1.99102e-06
1.16577e-05
2.46851e-06
2.68267e-06
2.88924e-06
3.04707e-06
3.16322e-06
3.261e-06
3.3884e-06
3.50647e-06
7.51074e-07
8.27778e-07
1.34791e-06
2.46538e-06
4.65456e-06
1.48547e-05
7.25236e-06
2.4254e-05
1.10946e-05
1.32223e-05
1.5389e-05
1.86257e-05
1.72311e-05
1.44727e-05
1.65867e-05
1.72881e-05
1.6457e-05
1.35356e-05
9.5433e-06
7.44302e-06
6.65295e-06
6.28042e-06
2.26993e-05
7.2468e-06
8.70973e-06
5.05629e-05
1.27879e-05
1.24867e-05
7.64553e-05
1.66807e-05
7.47341e-05
1.82568e-05
2.04688e-05
2.03541e-05
1.788e-05
1.78154e-05
1.97735e-05
1.96769e-05
1.48062e-05
1.26848e-05
6.41626e-05
5.7255e-05
7.6163e-06
8.32605e-06
6.4797e-05
6.21312e-06
6.66339e-06
6.11105e-05
7.21777e-06
1.41216e-05
6.96986e-05
1.38869e-05
1.3988e-05
1.43678e-05
6.28949e-05
4.13567e-05
9.56048e-06
8.15654e-06
1.61298e-06
6.0784e-07
2.95079e-07
6.89833e-07
1.14483e-06
5.6887e-07
2.56459e-06
6.42693e-07
3.93543e-06
1.14115e-06
1.13461e-06
1.12951e-06
1.1283e-06
1.1261e-06
1.11492e-06
1.09391e-06
1.07224e-06
1.04904e-06
1.03009e-06
1.01164e-06
3.28447e-06
9.82526e-07
9.73856e-07
3.28386e-06
1.00141e-06
1.04644e-06
1.12843e-06
1.2285e-06
1.37201e-06
1.5255e-06
1.67012e-06
1.84618e-06
9.90848e-06
2.26506e-06
2.50431e-06
2.71357e-06
2.91893e-06
3.07178e-06
3.18691e-06
3.28748e-06
3.41268e-06
3.52599e-06
2.51268e-06
4.26556e-06
2.90793e-06
2.00033e-05
3.93212e-05
1.29671e-05
1.34747e-05
4.80922e-05
5.47512e-05
4.55324e-05
1.95512e-05
4.71137e-05
1.79666e-05
7.22033e-06
3.48239e-05
1.77137e-05
1.60329e-05
2.82462e-05
9.7681e-06
7.43536e-06
5.69565e-06
1.07158e-05
7.74941e-06
7.06407e-06
7.82982e-06
8.96776e-06
1.01009e-05
1.06246e-05
1.25595e-05
1.3746e-05
1.49058e-05
1.74965e-05
2.05162e-05
8.04602e-05
2.03352e-05
2.02164e-05
2.05952e-05
2.07355e-05
7.51602e-05
1.2541e-05
1.11784e-05
9.26738e-06
8.63688e-06
9.46188e-06
6.75233e-05
5.74965e-06
4.98729e-06
4.48264e-06
4.97766e-06
5.06597e-06
3.93014e-06
3.36522e-06
4.76962e-06
3.59244e-05
3.38971e-05
7.65443e-06
5.96458e-06
3.64876e-06
6.60089e-07
3.32061e-07
1.89235e-07
2.27375e-07
1.59241e-06
6.18072e-07
6.62483e-07
1.19232e-06
1.20076e-06
1.20702e-06
1.1938e-06
1.18587e-06
1.18104e-06
1.17668e-06
1.16219e-06
1.1366e-06
1.10965e-06
1.08265e-06
1.06014e-06
1.04086e-06
1.01087e-06
1.00611e-06
9.98347e-07
1.00128e-06
1.03276e-06
3.62023e-06
1.17013e-06
4.01134e-06
4.83386e-06
1.56386e-06
1.70335e-06
1.88609e-06
2.06206e-06
2.30066e-06
2.54207e-06
2.74783e-06
2.94999e-06
3.09814e-06
3.21357e-06
3.31501e-06
3.43711e-06
3.54594e-06
1.40202e-05
1.35658e-05
1.01281e-05
6.11066e-05
6.02004e-06
1.59024e-05
5.80407e-05
1.70191e-05
3.62288e-05
1.86804e-05
3.39218e-05
3.66744e-05
1.77794e-05
1.02123e-05
2.25235e-05
1.75014e-05
1.4864e-05
1.56709e-05
7.95922e-06
7.10039e-06
5.39373e-06
5.48875e-06
1.88657e-05
5.81567e-06
6.96007e-06
7.72166e-06
5.12654e-05
8.85326e-06
9.31465e-06
1.1129e-05
1.31256e-05
1.35291e-05
7.14831e-05
1.71667e-05
7.71414e-05
2.09537e-05
2.14942e-05
9.04941e-05
7.77964e-05
1.20588e-05
1.08486e-05
1.02377e-05
9.69195e-06
9.56391e-06
7.26063e-06
4.59562e-06
3.69512e-06
3.14306e-06
2.88411e-06
2.96925e-05
2.95033e-06
1.81121e-06
1.74862e-06
1.81118e-06
1.78377e-06
4.34415e-06
1.21987e-06
1.0707e-06
3.62145e-07
7.7607e-07
8.10681e-07
5.98924e-07
6.35774e-07
6.73551e-07
1.23163e-06
1.26364e-06
1.28061e-06
1.28118e-06
4.4035e-06
1.24722e-06
1.24081e-06
1.23211e-06
1.21322e-06
1.18335e-06
1.15104e-06
1.12032e-06
1.09455e-06
1.0725e-06
3.57545e-06
1.03554e-06
1.02724e-06
1.03078e-06
1.06748e-06
1.12204e-06
1.21536e-06
1.31476e-06
1.45502e-06
1.60227e-06
1.73943e-06
1.92893e-06
1.08893e-05
2.33928e-06
2.57875e-06
2.78308e-06
2.97746e-06
3.1257e-06
3.24189e-06
3.34354e-06
3.46185e-06
3.5669e-06
1.74261e-05
2.50587e-05
2.20926e-05
4.69566e-05
4.14177e-06
3.16208e-05
1.31279e-05
1.64248e-05
1.95252e-05
1.34898e-05
1.38879e-05
1.67009e-05
1.53497e-05
1.60828e-05
1.70786e-05
3.28571e-05
1.25619e-05
9.36256e-06
6.87249e-06
5.4887e-06
4.29998e-06
6.3697e-06
4.44742e-06
1.71363e-05
2.90934e-05
4.29399e-05
4.24783e-05
6.57152e-06
6.77968e-06
8.37018e-06
5.95483e-05
6.35977e-05
1.05951e-05
1.06243e-05
1.24442e-05
8.30879e-05
8.42238e-05
1.89991e-05
1.4845e-05
6.85978e-05
1.0664e-05
1.0678e-05
7.04574e-05
7.74097e-06
5.39361e-05
3.34788e-06
3.26992e-05
2.02853e-06
2.23896e-06
6.37493e-06
2.62857e-06
2.17725e-06
1.7664e-06
1.68002e-06
1.38047e-06
1.12859e-06
5.84427e-07
7.19502e-07
8.29771e-07
8.16502e-07
2.05321e-06
2.76747e-06
7.16798e-07
1.27844e-06
1.32069e-06
1.36354e-06
1.38453e-06
1.37692e-06
1.35028e-06
1.32925e-06
1.31401e-06
1.30147e-06
1.27875e-06
1.24427e-06
3.80743e-06
1.16992e-06
1.13985e-06
3.93355e-06
1.08726e-06
3.71615e-06
1.06563e-06
1.0725e-06
1.11329e-06
1.17713e-06
1.27362e-06
4.60439e-06
1.51014e-06
1.6496e-06
1.78204e-06
9.82172e-06
2.17026e-06
2.38787e-06
2.62345e-06
2.82653e-06
3.01165e-06
3.16041e-06
3.2775e-06
3.37984e-06
3.49198e-06
3.59289e-06
2.11343e-06
1.74037e-05
2.11705e-05
2.14264e-05
1.48809e-05
1.22709e-05
8.10631e-06
6.99405e-06
8.21977e-06
8.8253e-06
7.67308e-06
8.50713e-06
7.79015e-06
1.39083e-05
1.41869e-05
1.26154e-05
9.75595e-06
8.31657e-06
6.22031e-06
4.60098e-06
3.66437e-06
3.47841e-06
3.26573e-06
3.78596e-06
2.74431e-05
3.06003e-05
3.05979e-05
4.89159e-06
3.1131e-05
5.44757e-06
5.91868e-06
6.24117e-06
6.3472e-06
6.97369e-06
8.00948e-06
9.53644e-06
9.58158e-06
9.58547e-06
6.72968e-05
1.03871e-05
6.76113e-05
7.5566e-05
7.01174e-05
5.60653e-06
3.34979e-06
2.17713e-06
1.65827e-06
1.59649e-06
1.48182e-06
1.20678e-06
3.32047e-07
5.32876e-07
5.27793e-07
5.24505e-07
2.4393e-07
2.30137e-07
7.6508e-07
1.36798e-06
6.0633e-07
2.56864e-06
3.39434e-06
4.71694e-06
1.36087e-06
1.38809e-06
1.43889e-06
1.48904e-06
1.50835e-06
1.4928e-06
1.45959e-06
1.42224e-06
1.39942e-06
1.38271e-06
1.35639e-06
1.31951e-06
1.27771e-06
1.23476e-06
1.2009e-06
1.17753e-06
1.14696e-06
1.13091e-06
1.11906e-06
1.12706e-06
1.17268e-06
1.24642e-06
1.34418e-06
1.44756e-06
1.57702e-06
1.70988e-06
1.84073e-06
2.04325e-06
2.24737e-06
2.45144e-06
2.67829e-06
2.87899e-06
3.05521e-06
3.20373e-06
3.32128e-06
3.41883e-06
3.52953e-06
3.62472e-06
1.40885e-06
4.91014e-06
1.25556e-05
1.54107e-05
1.18058e-05
6.59396e-06
3.53403e-06
3.31019e-06
4.39333e-06
5.17466e-06
4.95125e-06
7.81938e-06
9.54467e-06
6.80562e-06
9.92213e-06
8.96349e-06
7.57122e-06
5.76331e-06
7.10168e-06
3.57993e-06
5.60338e-06
2.70702e-06
2.70339e-06
2.94732e-06
1.79096e-05
3.39498e-06
3.18709e-06
3.22427e-06
1.93318e-05
3.43445e-06
3.02451e-05
3.40579e-05
4.26409e-06
5.29552e-06
4.42576e-05
5.06303e-06
5.41035e-06
6.04238e-06
7.11828e-06
6.0301e-05
7.40251e-06
7.24732e-06
5.58498e-06
4.86514e-05
2.20831e-06
1.58855e-06
1.46608e-06
9.22839e-07
6.01811e-07
5.04142e-07
5.01423e-07
8.6665e-07
5.13906e-07
1.0926e-06
5.52356e-07
1.48413e-06
1.65302e-06
2.37378e-06
7.04832e-07
7.65061e-07
8.30022e-07
1.43342e-06
1.49085e-06
1.52109e-06
6.17606e-06
1.61641e-06
1.62587e-06
1.60273e-06
5.80582e-06
5.44398e-06
1.48653e-06
1.46577e-06
1.43631e-06
1.39645e-06
1.35466e-06
1.30734e-06
1.27064e-06
1.24543e-06
1.21404e-06
1.19519e-06
1.18197e-06
1.18894e-06
3.95019e-06
1.32171e-06
1.41841e-06
1.52376e-06
1.6463e-06
1.77469e-06
1.90568e-06
1.13201e-05
2.31688e-06
2.52159e-06
2.73481e-06
2.9384e-06
3.10285e-06
3.2521e-06
3.3679e-06
3.45806e-06
3.56817e-06
3.6589e-06
1.13509e-06
2.80995e-06
5.96271e-06
8.09598e-06
5.77903e-06
3.13394e-06
1.94037e-06
1.61213e-06
1.6725e-06
2.1889e-06
3.35055e-06
5.21336e-06
7.22676e-06
8.8553e-06
6.00431e-06
7.59054e-06
6.04453e-06
7.39239e-06
3.98464e-06
2.92705e-06
2.40983e-06
6.91154e-06
8.38723e-06
9.64297e-06
1.22613e-05
2.2778e-06
2.05488e-06
2.00263e-06
1.78729e-06
1.9436e-06
1.45715e-05
1.93488e-06
2.18561e-06
2.5928e-05
2.53776e-06
2.72628e-06
3.03059e-05
3.6784e-06
4.1151e-06
4.54199e-06
4.68303e-06
4.9699e-05
3.37041e-06
2.22968e-06
3.73788e-06
2.56897e-06
1.90199e-06
5.28534e-07
5.54885e-07
5.65269e-07
5.65025e-07
1.89082e-06
1.97179e-06
6.05473e-07
6.33364e-07
6.62563e-07
6.9497e-07
7.54187e-07
8.18315e-07
1.4123e-06
1.49749e-06
7.09892e-06
1.63569e-06
7.02242e-06
1.70983e-06
1.73515e-06
1.73116e-06
1.703e-06
1.66334e-06
1.61377e-06
6.01008e-06
1.54777e-06
1.51575e-06
1.47507e-06
1.43244e-06
1.38284e-06
1.34819e-06
1.32201e-06
1.28958e-06
4.23834e-06
1.25379e-06
1.26051e-06
1.31807e-06
1.39981e-06
1.49632e-06
1.6011e-06
1.71381e-06
1.8427e-06
1.98062e-06
2.185e-06
2.38881e-06
2.59394e-06
2.80097e-06
2.99597e-06
3.15249e-06
3.30301e-06
3.41541e-06
3.49889e-06
3.60723e-06
3.69627e-06
1.02499e-06
1.76283e-06
3.84845e-06
5.51902e-06
4.88407e-06
4.05259e-06
3.27104e-06
2.22576e-06
1.35874e-06
9.56725e-07
1.18699e-06
3.86844e-06
5.17918e-06
5.96756e-06
7.09682e-06
6.32594e-06
5.30331e-06
3.8579e-06
3.01285e-06
2.33911e-06
1.83267e-06
8.46943e-06
1.47825e-06
1.54689e-06
1.48743e-06
1.43516e-06
1.3874e-06
7.80077e-06
1.04756e-06
6.49721e-06
9.87515e-07
9.73033e-07
6.15953e-06
1.19647e-06
1.01463e-05
1.53706e-06
1.87978e-06
2.14637e-06
2.51675e-06
2.92942e-06
2.96245e-06
2.60515e-06
1.79216e-06
3.63771e-06
1.40451e-06
6.44832e-07
9.89336e-07
1.04727e-06
1.09557e-06
1.12801e-06
3.84449e-06
3.92878e-06
3.9723e-06
7.07585e-07
4.43991e-06
7.78732e-07
1.3613e-06
5.93176e-06
1.48058e-06
1.56047e-06
1.64748e-06
1.71402e-06
1.7743e-06
1.80828e-06
1.83023e-06
1.83945e-06
1.82243e-06
1.79218e-06
1.75468e-06
1.70642e-06
1.6609e-06
1.63193e-06
1.59598e-06
1.55261e-06
1.51079e-06
1.46109e-06
4.93072e-06
1.40338e-06
1.37402e-06
1.35182e-06
1.33692e-06
1.34376e-06
4.74171e-06
1.48403e-06
1.57539e-06
1.68084e-06
1.78698e-06
1.90966e-06
2.06271e-06
2.26887e-06
2.46429e-06
2.65876e-06
2.86966e-06
3.05194e-06
3.2037e-06
3.35616e-06
3.46033e-06
3.54277e-06
3.64734e-06
3.73523e-06
9.96184e-07
1.33212e-06
2.31341e-06
3.85537e-06
4.19803e-06
3.8896e-06
3.9418e-06
3.64978e-06
2.2128e-06
9.97696e-07
6.31438e-07
1.03903e-06
2.74923e-06
4.54436e-06
5.05236e-06
5.02361e-06
4.32177e-06
7.00635e-06
2.44547e-06
1.78541e-06
1.35086e-06
1.11794e-06
1.01294e-06
9.86555e-07
9.62915e-07
8.29169e-06
8.20951e-07
6.91405e-07
6.28977e-07
6.33127e-07
6.02474e-07
5.89229e-07
6.18938e-07
6.56006e-07
7.29362e-07
8.84066e-07
1.15089e-06
1.30597e-05
1.60441e-06
1.81268e-06
1.87711e-06
1.53604e-06
3.97742e-06
1.40689e-06
7.41683e-07
1.04584e-06
3.99484e-06
1.19865e-06
1.24672e-06
1.27396e-06
1.30488e-06
1.34595e-06
1.36083e-06
1.36669e-06
1.40488e-06
1.45635e-06
1.51954e-06
1.57645e-06
1.63682e-06
1.70841e-06
1.78468e-06
1.84922e-06
1.89354e-06
1.92307e-06
1.01788e-05
1.9228e-06
1.91385e-06
1.88357e-06
1.84245e-06
1.78938e-06
1.74178e-06
1.70725e-06
1.66893e-06
1.63086e-06
1.58865e-06
1.54238e-06
1.5104e-06
1.48599e-06
1.45979e-06
1.4423e-06
1.42504e-06
1.43081e-06
1.49192e-06
1.5701e-06
1.65703e-06
1.75382e-06
1.86795e-06
1.0313e-05
2.13753e-06
2.34965e-06
2.54673e-06
2.73329e-06
2.94316e-06
3.11457e-06
3.26846e-06
3.41153e-06
3.50671e-06
3.5893e-06
3.68986e-06
3.77589e-06
1.00251e-06
1.1886e-06
1.59557e-06
2.35727e-06
2.71756e-06
2.70844e-06
3.20686e-06
4.011e-06
3.58004e-06
1.81737e-06
6.91128e-07
3.57143e-07
1.13712e-06
1.12299e-05
3.62634e-06
8.21769e-06
7.43197e-06
2.46613e-06
7.24575e-06
1.25977e-06
7.60462e-06
8.7069e-07
7.64467e-07
6.85713e-07
9.44108e-06
9.14827e-06
5.45461e-07
2.75612e-06
4.94814e-07
5.34749e-07
5.497e-07
5.1543e-07
1.68461e-06
5.02783e-07
5.19084e-07
6.23885e-07
5.41196e-06
9.78224e-07
1.1578e-06
1.14517e-05
1.41034e-06
4.12046e-06
1.36308e-06
1.03999e-06
1.11943e-06
1.23116e-06
1.31969e-06
1.38681e-06
1.43019e-06
1.45412e-06
5.77967e-06
1.53195e-06
1.54147e-06
6.61574e-06
6.94515e-06
1.63155e-06
1.68236e-06
1.73916e-06
8.85584e-06
1.85439e-06
1.90047e-06
1.94807e-06
1.98031e-06
2.00518e-06
2.01444e-06
2.00815e-06
1.99658e-06
1.96593e-06
1.92694e-06
1.87622e-06
8.92509e-06
1.79142e-06
1.74542e-06
1.70137e-06
1.66523e-06
1.62347e-06
1.59432e-06
1.56991e-06
1.54624e-06
1.53242e-06
5.43264e-06
5.43488e-06
1.5857e-06
1.65635e-06
1.73676e-06
1.8315e-06
1.94317e-06
2.06977e-06
2.22365e-06
2.4284e-06
2.62984e-06
2.81122e-06
3.01629e-06
3.17751e-06
3.33264e-06
3.4616e-06
3.55595e-06
3.63813e-06
3.73489e-06
3.81053e-06
1.02783e-06
1.21289e-06
1.40296e-06
1.70542e-06
1.96128e-06
2.2075e-06
2.85814e-06
3.92969e-06
4.4602e-06
3.19069e-06
1.38987e-06
3.35614e-07
4.6899e-07
1.20222e-06
1.98558e-06
2.37585e-06
1.98624e-06
1.53525e-06
1.11547e-06
9.57103e-07
8.52536e-07
7.66067e-07
3.74302e-06
6.2e-07
5.82959e-07
2.74796e-06
5.55803e-07
1.35817e-06
5.7545e-07
6.14499e-07
5.26102e-07
4.46513e-07
4.45824e-07
4.5153e-07
4.77167e-07
5.22058e-07
5.74523e-07
9.02439e-07
1.07466e-06
1.19852e-06
1.33068e-06
9.80503e-07
1.06411e-06
1.15744e-06
1.32161e-06
5.66115e-06
1.5173e-06
1.56589e-06
1.60809e-06
1.63805e-06
7.16697e-06
1.71337e-06
1.72002e-06
1.7299e-06
1.75666e-06
1.79343e-06
1.84067e-06
1.88065e-06
1.91841e-06
1.17976e-05
1.98184e-06
2.02553e-06
2.05974e-06
2.08796e-06
2.11218e-06
2.11425e-06
2.09926e-06
2.07012e-06
2.02648e-06
1.96589e-06
1.91006e-06
1.8678e-06
1.82447e-06
1.78052e-06
1.73713e-06
1.70253e-06
1.67642e-06
1.65123e-06
1.63171e-06
1.62231e-06
1.61075e-06
6.17439e-06
1.67608e-06
1.74362e-06
1.81356e-06
1.91563e-06
2.02214e-06
2.15499e-06
2.31855e-06
2.51152e-06
2.70799e-06
2.89212e-06
3.08237e-06
3.24273e-06
3.39764e-06
3.51279e-06
3.60696e-06
3.68683e-06
3.78079e-06
3.84844e-06
1.07091e-06
1.29392e-06
1.49838e-06
1.69801e-06
1.94946e-06
2.32077e-06
3.05898e-06
4.19769e-06
5.00851e-06
4.46082e-06
2.5623e-06
1.18183e-06
5.88982e-07
6.4614e-07
9.34238e-07
1.20816e-06
9.53134e-06
6.28669e-06
9.23644e-07
4.31959e-06
8.91355e-07
8.56942e-07
7.63214e-07
7.11756e-07
6.95984e-07
7.98008e-07
9.8391e-07
4.6407e-07
7.65344e-07
4.01301e-07
4.18098e-07
4.06185e-07
7.67679e-07
3.45763e-07
3.68564e-07
4.72872e-07
5.31354e-07
2.24768e-06
6.86516e-07
3.04442e-06
1.02459e-06
1.15633e-06
1.21966e-06
5.33715e-06
1.52132e-06
1.62426e-06
8.75872e-06
1.70512e-06
9.22217e-06
1.78374e-06
9.48547e-06
1.85216e-06
1.861e-06
1.8755e-06
1.05745e-05
1.92087e-06
1.95043e-06
1.9776e-06
2.00876e-06
2.03888e-06
2.05697e-06
2.10783e-06
2.15594e-06
1.56192e-05
2.21395e-06
2.22192e-06
2.20626e-06
2.16884e-06
2.12309e-06
2.06475e-06
2.01362e-06
1.95712e-06
1.90401e-06
1.85486e-06
1.81871e-06
1.77594e-06
1.75093e-06
1.73415e-06
1.71676e-06
1.71001e-06
1.70516e-06
1.71485e-06
7.70625e-06
1.82262e-06
1.8968e-06
1.99074e-06
2.1131e-06
2.24125e-06
2.40906e-06
2.60539e-06
2.78697e-06
2.97866e-06
3.15408e-06
3.3125e-06
3.45614e-06
3.56691e-06
3.65781e-06
3.739e-06
3.82076e-06
3.88778e-06
1.13804e-06
1.41902e-06
1.71207e-06
1.96829e-06
2.27011e-06
2.72395e-06
3.7094e-06
4.94917e-06
5.68936e-06
5.37416e-06
3.80785e-06
2.09608e-06
1.18004e-06
9.27276e-07
8.72446e-07
4.35481e-06
1.06884e-06
1.08691e-06
4.06715e-06
1.0543e-06
1.09333e-06
9.92696e-07
9.17649e-07
1.92494e-06
7.25809e-07
4.95592e-07
3.85664e-07
4.26177e-07
1.0027e-06
4.66414e-07
4.50736e-07
4.41571e-07
4.21901e-07
3.81583e-07
3.53001e-07
8.16839e-07
5.00019e-07
6.39772e-07
7.74026e-07
3.09722e-06
1.21342e-06
4.96417e-06
1.43847e-06
8.32766e-06
1.00233e-05
1.74516e-06
1.79561e-06
1.82944e-06
1.86416e-06
1.16727e-05
1.92923e-06
1.93943e-06
1.95469e-06
1.9716e-06
1.98843e-06
2.0059e-06
2.03181e-06
2.06088e-06
2.09242e-06
2.1295e-06
2.1521e-06
2.20299e-06
2.26381e-06
2.30257e-06
2.33389e-06