/*--------------------------------*- C++ -*----------------------------------*\
  =========                 |
  \\      /  F ield         | OpenFOAM: The Open Source CFD Toolbox
   \\    /   O peration     | Website:  https://openfoam.org
    \\  /    A nd           | Version:  6
     \\/     M anipulation  |
\*---------------------------------------------------------------------------*/
FoamFile
{
    version     2.0;
    format      ascii;
    class       volScalarField;
    location    "0.1";
    object      Ha;
}
// * * * * * * * * * * * * * * * * * * * * * * * * * * * * * * * * * * * * * //

dimensions      [0 2 -2 0 0 0 0];

internalField   nonuniform List<scalar> 
8000
(
-71940.1
-129460
-325773
-895927
-1.38621e+06
-965454
-518272
-277003
-161667
-110351
-91179.4
-89785.6
-101141
-146581
-146513
-151012
-367598
-1.84174e+06
-550998
-319410
-331296
-464514
-728403
-1.10032e+06
-1.47605e+06
-1.7417e+06
-1.83035e+06
-1.83531e+06
-1.87087e+06
-2.42806e+06
-1.96271e+06
-1.37714e+06
-1.07678e+06
-898989
-787007
-711568
-676147
-700207
-821086
-966331
-879281
-849961
-905545
-1.02509e+06
-1.18606e+06
-1.37347e+06
-1.5668e+06
-1.76784e+06
-1.99778e+06
-2.37603e+06
-2.58994e+06
-2.33584e+06
-2.26714e+06
-2.24879e+06
-2.2519e+06
-2.26743e+06
-2.28287e+06
-2.28532e+06
-2.26807e+06
-2.23193e+06
-2.17899e+06
-2.11037e+06
-2.02798e+06
-1.93836e+06
-1.84305e+06
-1.75848e+06
-1.69922e+06
-1.67043e+06
-1.62077e+06
-1.59852e+06
-1.6096e+06
-1.50693e+06
-1.51455e+06
-1.48359e+06
-1.49127e+06
-1.5451e+06
-1.54025e+06
-1.55949e+06
-1.5972e+06
-1.60919e+06
-1.56814e+06
-1.56041e+06
-1.51438e+06
-1.46515e+06
-1.40605e+06
-1.33271e+06
-1.27834e+06
-1.22645e+06
-1.20739e+06
-1.09934e+06
-1.031e+06
-976281
-939317
-910405
-846965
-814937
-794552
-779323
-774898
-729423
-71631.3
-132537
-348097
-968390
-1.56595e+06
-974596
-496665
-265661
-155599
-107879
-91385.8
-92533.5
-110757
-242561
-222222
-170564
-210680
-333209
-370825
-374782
-377126
-498477
-758741
-1.12769e+06
-1.50275e+06
-1.77537e+06
-1.84745e+06
-1.83511e+06
-1.83412e+06
-1.91783e+06
-1.62018e+06
-1.30308e+06
-1.06878e+06
-920698
-833028
-768390
-730924
-747916
-867199
-1.22361e+06
-956918
-889302
-937191
-1.05432e+06
-1.21284e+06
-1.39871e+06
-1.58668e+06
-1.77563e+06
-1.97315e+06
-2.19562e+06
-2.27789e+06
-2.27579e+06
-2.26707e+06
-2.25677e+06
-2.25809e+06
-2.27085e+06
-2.28318e+06
-2.28235e+06
-2.26289e+06
-2.22653e+06
-2.17428e+06
-2.10608e+06
-2.02388e+06
-1.93471e+06
-1.83954e+06
-1.75499e+06
-1.69592e+06
-1.66851e+06
-1.61923e+06
-1.59465e+06
-1.57637e+06
-1.50357e+06
-1.51427e+06
-1.48166e+06
-1.48969e+06
-1.54473e+06
-1.53831e+06
-1.55817e+06
-1.59521e+06
-1.61021e+06
-1.56697e+06
-1.56043e+06
-1.5131e+06
-1.4643e+06
-1.40654e+06
-1.33202e+06
-1.27763e+06
-1.22588e+06
-1.19006e+06
-1.09849e+06
-1.03059e+06
-975822
-938957
-910293
-846528
-814625
-794259
-779039
-774910
-729124
-73613.4
-153499
-450890
-1.37338e+06
-1.07944e+06
-691370
-381552
-269166
-170865
-110224
-96003.7
-95889.6
-121128
-499112
-493127
-250215
-185872
-218759
-589347
-1.12116e+06
-569655
-584663
-826714
-1.18602e+06
-1.55384e+06
-1.85782e+06
-1.88271e+06
-1.83581e+06
-1.7852e+06
-1.70476e+06
-1.49323e+06
-1.26447e+06
-1.08211e+06
-971190
-934843
-909497
-855454
-857355
-901013
-964786
-927966
-936263
-998261
-1.11428e+06
-1.26866e+06
-1.45149e+06
-1.6301e+06
-1.79908e+06
-1.95869e+06
-2.1028e+06
-2.19945e+06
-2.2753e+06
-2.29699e+06
-2.27624e+06
-2.26881e+06
-2.27557e+06
-2.2825e+06
-2.27566e+06
-2.25197e+06
-2.21517e+06
-2.16453e+06
-2.09698e+06
-2.01506e+06
-1.92688e+06
-1.83183e+06
-1.74743e+06
-1.68869e+06
-1.6639e+06
-1.61617e+06
-1.58689e+06
-1.5603e+06
-1.49761e+06
-1.51368e+06
-1.47731e+06
-1.48627e+06
-1.54395e+06
-1.53401e+06
-1.55531e+06
-1.59095e+06
-1.61243e+06
-1.56431e+06
-1.56051e+06
-1.51011e+06
-1.46263e+06
-1.40755e+06
-1.33045e+06
-1.27606e+06
-1.22469e+06
-1.17987e+06
-1.09691e+06
-1.02968e+06
-974816
-938184
-910060
-845567
-813943
-793616
-778416
-774937
-728464
-77911.8
-195899
-672024
-865273
-685915
-461835
-266401
-166479
-115575
-92154.6
-86412
-90115.5
-107493
-432805
-1.60522e+06
-325357
-169398
-181759
-397656
-511409
-471208
-611727
-907069
-1.26661e+06
-1.60867e+06
-2.01368e+06
-1.91835e+06
-1.83411e+06
-1.75001e+06
-1.62653e+06
-1.45233e+06
-1.27095e+06
-1.12411e+06
-1.03971e+06
-1.06014e+06
-1.21054e+06
-1.03383e+06
-1.07095e+06
-1.01453e+06
-1.02178e+06
-1.00824e+06
-1.04054e+06
-1.09624e+06
-1.19997e+06
-1.34583e+06
-1.52538e+06
-1.69314e+06
-1.83973e+06
-1.97054e+06
-2.08665e+06
-2.18522e+06
-2.29344e+06
-2.36474e+06
-2.29617e+06
-2.27607e+06
-2.27694e+06
-2.27927e+06
-2.26539e+06
-2.23615e+06
-2.19877e+06
-2.15116e+06
-2.08389e+06
-2.00219e+06
-1.91534e+06
-1.82039e+06
-1.73614e+06
-1.67784e+06
-1.65577e+06
-1.61252e+06
-1.57648e+06
-1.55246e+06
-1.48949e+06
-1.49208e+06
-1.47041e+06
-1.4812e+06
-1.52431e+06
-1.52742e+06
-1.55106e+06
-1.58472e+06
-1.59277e+06
-1.56004e+06
-1.56078e+06
-1.5052e+06
-1.46059e+06
-1.39767e+06
-1.32795e+06
-1.27368e+06
-1.22293e+06
-1.17235e+06
-1.09472e+06
-1.02832e+06
-973307
-934457
-902044
-844076
-812912
-792643
-777471
-767703
-727432
-77564
-316814
-2.76923e+06
-1.06213e+06
-540728
-322422
-185135
-122317
-94366.3
-84423.9
-86563.6
-93081.8
-98178.2
-263711
-353937
-200403
-147858
-163859
-268349
-350361
-446532
-684051
-1.03838e+06
-1.38111e+06
-1.65388e+06
-1.87855e+06
-1.87685e+06
-1.81921e+06
-1.73543e+06
-1.61215e+06
-1.4649e+06
-1.31704e+06
-1.19526e+06
-1.1165e+06
-1.09605e+06
-1.08156e+06
-1.04175e+06
-1.05577e+06
-1.11032e+06
-1.22187e+06
-1.15618e+06
-1.20131e+06
-1.23121e+06
-1.30216e+06
-1.43391e+06
-1.61223e+06
-1.76894e+06
-1.88839e+06
-1.99555e+06
-2.10346e+06
-2.18366e+06
-2.27314e+06
-2.30826e+06
-2.2843e+06
-2.27225e+06
-2.27217e+06
-2.27294e+06
-2.25215e+06
-2.21588e+06
-2.17776e+06
-2.13558e+06
-2.06745e+06
-1.98582e+06
-1.90033e+06
-1.80559e+06
-1.72144e+06
-1.66365e+06
-1.64272e+06
-1.60957e+06
-1.56425e+06
-1.53405e+06
-1.479e+06
-1.47405e+06
-1.46165e+06
-1.4747e+06
-1.50806e+06
-1.51919e+06
-1.54555e+06
-1.57688e+06
-1.57888e+06
-1.55467e+06
-1.5614e+06
-1.49808e+06
-1.45866e+06
-1.39044e+06
-1.32473e+06
-1.2705e+06
-1.22066e+06
-1.16479e+06
-1.09197e+06
-1.02652e+06
-971324
-930868
-895572
-842174
-811542
-791346
-776223
-761949
-726124
-76333.7
-312362
-1.39495e+06
-671920
-347984
-215505
-136680
-107017
-87531
-82198.8
-83169.9
-87146
-93414.8
-166179
-191302
-158271
-179294
-179057
-236944
-320837
-502919
-818528
-1.25678e+06
-1.54705e+06
-1.70253e+06
-1.84872e+06
-1.85458e+06
-1.81522e+06
-1.74992e+06
-1.63796e+06
-1.51604e+06
-1.3966e+06
-1.29719e+06
-1.22167e+06
-1.17679e+06
-1.13838e+06
-1.11651e+06
-1.14116e+06
-1.20703e+06
-1.284e+06
-1.28842e+06
-1.38611e+06
-1.4258e+06
-1.40568e+06
-1.51813e+06
-1.69953e+06
-1.85243e+06
-1.93095e+06
-2.01303e+06
-2.13584e+06
-2.17851e+06
-2.2535e+06
-2.31101e+06
-2.27658e+06
-2.26331e+06
-2.26163e+06
-2.26288e+06
-2.23759e+06
-2.19147e+06
-2.15225e+06
-2.11908e+06
-2.04822e+06
-1.96655e+06
-1.8817e+06
-1.78821e+06
-1.70369e+06
-1.64639e+06
-1.624e+06
-1.5897e+06
-1.55057e+06
-1.51849e+06
-1.46649e+06
-1.45759e+06
-1.45133e+06
-1.46702e+06
-1.4935e+06
-1.5097e+06
-1.53886e+06
-1.5678e+06
-1.56836e+06
-1.5484e+06
-1.55196e+06
-1.48863e+06
-1.44454e+06
-1.38458e+06
-1.32085e+06
-1.26653e+06
-1.2179e+06
-1.15788e+06
-1.08873e+06
-1.02429e+06
-968897
-927263
-890229
-839909
-809842
-789732
-774682
-757247
-724575
-72017.5
-203277
-558473
-357896
-206476
-152000
-133760
-121631
-92865.8
-85884.6
-86684.2
-92537.8
-102462
-130196
-141895
-139745
-160436
-186005
-240974
-361567
-667362
-978035
-1.29669e+06
-1.54208e+06
-1.72617e+06
-1.87884e+06
-1.8613e+06
-1.82448e+06
-1.7992e+06
-1.68922e+06
-1.59884e+06
-1.50301e+06
-1.42861e+06
-1.36321e+06
-1.32e+06
-1.28098e+06
-1.25517e+06
-1.27798e+06
-1.33578e+06
-1.43793e+06
-1.48983e+06
-1.42182e+06
-1.41835e+06
-1.46944e+06
-1.58283e+06
-1.76253e+06
-1.95655e+06
-1.95583e+06
-2.01175e+06
-2.08834e+06
-2.14881e+06
-2.21947e+06
-2.28811e+06
-2.26125e+06
-2.24827e+06
-2.2453e+06
-2.24657e+06
-2.22558e+06
-2.16296e+06
-2.12212e+06
-2.10197e+06
-2.02692e+06
-1.94462e+06
-1.85871e+06
-1.76998e+06
-1.68303e+06
-1.62646e+06
-1.6013e+06
-1.57236e+06
-1.53648e+06
-1.50466e+06
-1.45216e+06
-1.44148e+06
-1.4396e+06
-1.45836e+06
-1.47958e+06
-1.49917e+06
-1.53094e+06
-1.55787e+06
-1.55998e+06
-1.54133e+06
-1.5358e+06
-1.47736e+06
-1.43205e+06
-1.37961e+06
-1.31632e+06
-1.26177e+06
-1.2147e+06
-1.15121e+06
-1.08501e+06
-1.02163e+06
-966059
-923526
-884047
-837284
-807822
-787807
-772856
-753192
-722806
-82802
-148049
-272387
-191722
-136014
-114468
-118597
-98611.6
-88895.7
-89739.8
-96187.7
-105931
-120826
-130143
-133746
-143802
-173196
-215716
-285792
-428450
-701599
-1.18234e+06
-1.41149e+06
-1.59789e+06
-1.77248e+06
-1.87584e+06
-1.85715e+06
-1.83668e+06
-1.80171e+06
-1.73106e+06
-1.71146e+06
-1.62379e+06
-1.58288e+06
-1.53299e+06
-1.50106e+06
-1.48148e+06
-1.43666e+06
-1.44045e+06
-1.48861e+06
-1.51094e+06
-1.47822e+06
-1.45107e+06
-1.46981e+06
-1.53443e+06
-1.63423e+06
-1.77158e+06
-1.88069e+06
-1.93885e+06
-1.99931e+06
-2.06113e+06
-2.11926e+06
-2.1816e+06
-2.25526e+06
-2.23861e+06
-2.22693e+06
-2.2233e+06
-2.22238e+06
-2.1861e+06
-2.12819e+06
-2.08718e+06
-2.08098e+06
-2.0057e+06
-1.92106e+06
-1.83019e+06
-1.7409e+06
-1.65951e+06
-1.60432e+06
-1.57611e+06
-1.55589e+06
-1.52285e+06
-1.49285e+06
-1.43604e+06
-1.42513e+06
-1.42657e+06
-1.44917e+06
-1.46562e+06
-1.48781e+06
-1.52159e+06
-1.54768e+06
-1.54949e+06
-1.53353e+06
-1.52206e+06
-1.46495e+06
-1.42049e+06
-1.37522e+06
-1.31123e+06
-1.25623e+06
-1.20678e+06
-1.14449e+06
-1.08086e+06
-1.01856e+06
-962843
-919613
-878182
-834359
-805491
-785578
-770748
-749560
-720828
-71723.5
-105373
-155533
-129466
-102045
-92591.2
-92660.5
-88352.4
-89096.5
-95557.3
-104301
-127081
-180068
-173302
-168366
-176708
-235441
-287084
-387604
-538910
-794375
-1.10384e+06
-1.35934e+06
-1.58554e+06
-1.84177e+06
-1.93274e+06
-1.87097e+06
-1.85223e+06
-1.85347e+06
-1.77162e+06
-1.73572e+06
-1.71828e+06
-1.75022e+06
-1.72295e+06
-1.66787e+06
-1.64577e+06
-1.63795e+06
-1.60463e+06
-1.65209e+06
-1.63976e+06
-1.55026e+06
-1.5192e+06
-1.54347e+06
-1.60511e+06
-1.68332e+06
-1.78067e+06
-1.86272e+06
-1.93191e+06
-1.99121e+06
-2.04375e+06
-2.09296e+06
-2.14352e+06
-2.18898e+06
-2.20879e+06
-2.20174e+06
-2.19573e+06
-2.19665e+06
-2.15165e+06
-2.09042e+06
-2.04778e+06
-2.04181e+06
-1.97077e+06
-1.87907e+06
-1.7979e+06
-1.71154e+06
-1.63417e+06
-1.58042e+06
-1.54906e+06
-1.54014e+06
-1.49506e+06
-1.46141e+06
-1.41787e+06
-1.40826e+06
-1.41233e+06
-1.43242e+06
-1.45114e+06
-1.47572e+06
-1.51032e+06
-1.53825e+06
-1.53249e+06
-1.52528e+06
-1.51057e+06
-1.45181e+06
-1.40914e+06
-1.36695e+06
-1.30498e+06
-1.24994e+06
-1.1987e+06
-1.13765e+06
-1.07627e+06
-1.01507e+06
-959284
-914392
-872614
-831158
-802858
-783052
-768362
-746213
-718649
-67310.5
-83537.1
-101598
-97367.1
-85524.4
-82888.4
-84878.7
-87147.6
-96401.7
-115189
-122900
-157045
-331976
-389657
-245471
-232779
-274124
-384121
-561036
-744252
-1.00458e+06
-1.16399e+06
-1.37196e+06
-1.5815e+06
-1.7718e+06
-1.89018e+06
-1.86711e+06
-1.85332e+06
-1.83664e+06
-1.80224e+06
-1.78592e+06
-1.80244e+06
-1.91278e+06
-1.94968e+06
-1.8462e+06
-1.80189e+06
-1.77056e+06
-1.75846e+06
-1.74118e+06
-1.70814e+06
-1.63927e+06
-1.60694e+06
-1.6277e+06
-1.68104e+06
-1.7366e+06
-1.80254e+06
-1.86657e+06
-1.93496e+06
-1.99096e+06
-2.03238e+06
-2.06932e+06
-2.10701e+06
-2.13913e+06
-2.16867e+06
-2.16493e+06
-2.16242e+06
-2.17481e+06
-2.12087e+06
-2.04977e+06
-2.00452e+06
-1.98523e+06
-1.92368e+06
-1.8364e+06
-1.75758e+06
-1.68148e+06
-1.60779e+06
-1.5551e+06
-1.5204e+06
-1.51471e+06
-1.46804e+06
-1.43223e+06
-1.39843e+06
-1.39079e+06
-1.39705e+06
-1.41548e+06
-1.43608e+06
-1.46325e+06
-1.4969e+06
-1.52194e+06
-1.51619e+06
-1.50771e+06
-1.48971e+06
-1.43804e+06
-1.39761e+06
-1.35329e+06
-1.29808e+06
-1.24293e+06
-1.19039e+06
-1.13065e+06
-1.07129e+06
-1.01118e+06
-955415
-909096
-867213
-827701
-799933
-780238
-765707
-743057
-716271
-66648.3
-76927.7
-88431.2
-84743.3
-81279.6
-81865.6
-86062.5
-93402.7
-103500
-119774
-150074
-212346
-620754
-721208
-394592
-312679
-339451
-452934
-664232
-864635
-1.04931e+06
-1.23489e+06
-1.43209e+06
-1.59573e+06
-1.74259e+06
-1.85167e+06
-1.87651e+06
-1.86142e+06
-1.85782e+06
-1.85026e+06
-1.84355e+06
-1.86334e+06
-1.91765e+06
-1.91529e+06
-1.8907e+06
-1.95763e+06
-1.8969e+06
-1.93356e+06
-1.84818e+06
-1.83163e+06
-1.74245e+06
-1.70053e+06
-1.71287e+06
-1.75849e+06
-1.79421e+06
-1.8312e+06
-1.87716e+06
-1.93692e+06
-2.00073e+06
-2.02395e+06
-2.04635e+06
-2.07221e+06
-2.09671e+06
-2.12783e+06
-2.1321e+06
-2.12441e+06
-2.12798e+06
-2.07009e+06
-2.00509e+06
-1.95829e+06
-1.92844e+06
-1.88213e+06
-1.79427e+06
-1.71615e+06
-1.63846e+06
-1.56849e+06
-1.52847e+06
-1.49054e+06
-1.47568e+06
-1.44256e+06
-1.40479e+06
-1.37817e+06
-1.37271e+06
-1.38084e+06
-1.39854e+06
-1.42046e+06
-1.44713e+06
-1.47977e+06
-1.50676e+06
-1.50093e+06
-1.4902e+06
-1.47051e+06
-1.42397e+06
-1.38573e+06
-1.34e+06
-1.29055e+06
-1.23525e+06
-1.18174e+06
-1.12347e+06
-1.06602e+06
-1.0069e+06
-951267
-903672
-861887
-824003
-796725
-777143
-762801
-739073
-713693
-68410.2
-78532.1
-83817.2
-87153
-91160.5
-96675.8
-98085.7
-112615
-126463
-138506
-167506
-235888
-544297
-1.15049e+06
-526095
-366645
-365788
-491819
-837267
-1.07635e+06
-1.1434e+06
-1.3297e+06
-1.55097e+06
-1.63142e+06
-1.73685e+06
-1.86281e+06
-1.92221e+06
-1.87543e+06
-1.90089e+06
-1.9139e+06
-1.90341e+06
-1.90857e+06
-1.92982e+06
-1.92834e+06
-1.92333e+06
-1.93903e+06
-1.93424e+06
-1.95368e+06
-1.91789e+06
-1.87331e+06
-1.82373e+06
-1.78606e+06
-1.78965e+06
-1.83046e+06
-1.85573e+06
-1.85854e+06
-1.88658e+06
-1.92435e+06
-1.96432e+06
-2.00989e+06
-2.02341e+06
-2.04027e+06
-2.0599e+06
-2.08283e+06
-2.08794e+06
-2.08219e+06
-2.07095e+06
-2.01832e+06
-1.95872e+06
-1.90911e+06
-1.87181e+06
-1.83524e+06
-1.75211e+06
-1.67358e+06
-1.59584e+06
-1.52851e+06
-1.5023e+06
-1.46095e+06
-1.43864e+06
-1.40967e+06
-1.37823e+06
-1.35734e+06
-1.35408e+06
-1.36383e+06
-1.38148e+06
-1.40429e+06
-1.43039e+06
-1.46149e+06
-1.49227e+06
-1.48238e+06
-1.47287e+06
-1.45288e+06
-1.40972e+06
-1.37348e+06
-1.32701e+06
-1.28241e+06
-1.227e+06
-1.17269e+06
-1.1161e+06
-1.05721e+06
-1.00221e+06
-946975
-898078
-856571
-820079
-793245
-773777
-759676
-735132
-710920
-70019
-75247.8
-81221.5
-93670
-108378
-114696
-123146
-144367
-161323
-192569
-230580
-311044
-561635
-935440
-546365
-393682
-402648
-536470
-827209
-1.05334e+06
-1.21829e+06
-1.42818e+06
-1.65477e+06
-1.66517e+06
-1.73748e+06
-1.81678e+06
-1.85657e+06
-1.85786e+06
-1.96537e+06
-1.92886e+06
-1.95704e+06
-1.93918e+06
-1.95197e+06
-1.9555e+06
-1.94839e+06
-1.95381e+06
-1.96066e+06
-1.9667e+06
-1.9405e+06
-1.92056e+06
-1.91361e+06
-1.87271e+06
-1.85247e+06
-1.88676e+06
-1.92385e+06
-1.8769e+06
-1.88962e+06
-1.90263e+06
-1.93241e+06
-1.97599e+06
-1.97917e+06
-1.99195e+06
-2.00891e+06
-2.03533e+06
-2.04386e+06
-2.03925e+06
-2.01799e+06
-1.97074e+06
-1.91145e+06
-1.8576e+06
-1.81567e+06
-1.78151e+06
-1.71131e+06
-1.62887e+06
-1.55577e+06
-1.48813e+06
-1.4657e+06
-1.42382e+06
-1.40353e+06
-1.37798e+06
-1.35241e+06
-1.33614e+06
-1.33493e+06
-1.34612e+06
-1.36424e+06
-1.3876e+06
-1.41337e+06
-1.44274e+06
-1.47845e+06
-1.46386e+06
-1.45558e+06
-1.43683e+06
-1.39532e+06
-1.36092e+06
-1.31402e+06
-1.27363e+06
-1.21827e+06
-1.16322e+06
-1.10854e+06
-1.04808e+06
-997323
-940457
-892261
-851214
-815941
-789500
-770149
-755433
-731154
-707958
-71109.3
-82466.9
-91011.8
-129327
-203502
-181806
-188165
-237878
-292078
-492677
-376647
-478151
-599435
-907939
-575065
-432014
-474392
-650547
-918952
-1.14203e+06
-1.29953e+06
-1.54723e+06
-1.68115e+06
-1.67075e+06
-1.72154e+06
-1.78106e+06
-1.82389e+06
-1.83144e+06
-1.88141e+06
-1.89692e+06
-1.93057e+06
-1.93576e+06
-1.96312e+06
-2.00068e+06
-1.97298e+06
-1.97785e+06
-1.98994e+06
-1.99919e+06
-1.98379e+06
-1.93446e+06
-1.91029e+06
-1.89203e+06
-1.89206e+06
-1.91938e+06
-1.93739e+06
-1.87206e+06
-1.85957e+06
-1.86189e+06
-1.89559e+06
-1.93631e+06
-1.92776e+06
-1.9434e+06
-1.95835e+06
-1.99037e+06
-1.98692e+06
-1.98148e+06
-1.96141e+06
-1.91702e+06
-1.86377e+06
-1.80504e+06
-1.7597e+06
-1.71944e+06
-1.66273e+06
-1.58125e+06
-1.50689e+06
-1.44721e+06
-1.42056e+06
-1.38628e+06
-1.37013e+06
-1.34801e+06
-1.32727e+06
-1.31467e+06
-1.31534e+06
-1.3278e+06
-1.34681e+06
-1.37043e+06
-1.39605e+06
-1.42363e+06
-1.45687e+06
-1.44544e+06
-1.43822e+06
-1.41921e+06
-1.38074e+06
-1.34841e+06
-1.30081e+06
-1.26434e+06
-1.20933e+06
-1.15331e+06
-1.10064e+06
-1.03879e+06
-988180
-933642
-886239
-845779
-811600
-785501
-766271
-751104
-727116
-704811
-90912.6
-98965.9
-127656
-239174
-1.03614e+06
-448402
-366129
-433677
-558456
-548795
-565055
-542078
-613484
-804002
-636903
-490842
-575625
-775028
-948949
-1.22594e+06
-1.37497e+06
-1.51631e+06
-1.62953e+06
-1.64019e+06
-1.70608e+06
-1.76693e+06
-1.82753e+06
-1.80322e+06
-1.82647e+06
-1.86041e+06
-1.9008e+06
-1.91657e+06
-1.94483e+06
-1.9534e+06
-1.98345e+06
-2.00214e+06
-2.01549e+06
-2.07292e+06
-1.9944e+06
-1.93797e+06
-1.91852e+06
-1.91838e+06
-1.92121e+06
-1.93483e+06
-1.90058e+06
-1.84535e+06
-1.82173e+06
-1.81719e+06
-1.84988e+06
-1.90157e+06
-1.87572e+06
-1.89535e+06
-1.90783e+06
-1.92959e+06
-1.92118e+06
-1.92464e+06
-1.90229e+06
-1.8574e+06
-1.81702e+06
-1.75224e+06
-1.70477e+06
-1.65972e+06
-1.60049e+06
-1.53165e+06
-1.46036e+06
-1.40629e+06
-1.3769e+06
-1.34961e+06
-1.3391e+06
-1.3195e+06
-1.30271e+06
-1.29305e+06
-1.29536e+06
-1.30896e+06
-1.32921e+06
-1.35283e+06
-1.37849e+06
-1.40428e+06
-1.43585e+06
-1.42704e+06
-1.42073e+06
-1.40196e+06
-1.36604e+06
-1.33331e+06
-1.2872e+06
-1.25169e+06
-1.19769e+06
-1.14292e+06
-1.09239e+06
-1.02939e+06
-979110
-926736
-880019
-840234
-807066
-781256
-762152
-746687
-723007
-701484
-220863
-152351
-212790
-484781
-1.00259e+06
-600449
-588557
-778538
-725417
-686934
-692185
-739932
-717353
-741987
-629255
-593527
-669490
-803221
-985308
-1.19227e+06
-1.42027e+06
-1.50718e+06
-1.53898e+06
-1.60876e+06
-1.7044e+06
-1.77838e+06
-1.77341e+06
-1.75522e+06
-1.77181e+06
-1.82084e+06
-1.87407e+06
-1.90237e+06
-1.88251e+06
-1.89021e+06
-1.92437e+06
-2.02589e+06
-2.03565e+06
-1.99008e+06
-1.95545e+06
-1.94156e+06
-1.93099e+06
-1.94706e+06
-1.95047e+06
-1.91506e+06
-1.86483e+06
-1.80327e+06
-1.775e+06
-1.75864e+06
-1.78219e+06
-1.82493e+06
-1.80951e+06
-1.83894e+06
-1.84731e+06
-1.85917e+06
-1.84485e+06
-1.84666e+06
-1.83235e+06
-1.79075e+06
-1.75279e+06
-1.68286e+06
-1.64182e+06
-1.59241e+06
-1.5298e+06
-1.47268e+06
-1.408e+06
-1.35753e+06
-1.32731e+06
-1.3069e+06
-1.29966e+06
-1.28684e+06
-1.27396e+06
-1.26709e+06
-1.27108e+06
-1.28587e+06
-1.30833e+06
-1.33134e+06
-1.35767e+06
-1.38112e+06
-1.40839e+06
-1.40537e+06
-1.39967e+06
-1.38193e+06
-1.34841e+06
-1.31484e+06
-1.27046e+06
-1.23609e+06
-1.1834e+06
-1.12998e+06
-1.08198e+06
-1.01845e+06
-966605
-918352
-872352
-833448
-801425
-775897
-756956
-741292
-717994
-697296
-412898
-242055
-310523
-473630
-675517
-613713
-781394
-961000
-878417
-857556
-939489
-909013
-915418
-809573
-770250
-714106
-796519
-951778
-1.11175e+06
-1.23552e+06
-1.34431e+06
-1.41529e+06
-1.47563e+06
-1.57096e+06
-1.69474e+06
-1.7125e+06
-1.71248e+06
-1.70185e+06
-1.71169e+06
-1.74189e+06
-1.77888e+06
-1.78986e+06
-1.80194e+06
-1.82515e+06
-1.85052e+06
-1.88789e+06
-1.89565e+06
-1.90367e+06
-1.93521e+06
-1.92957e+06
-1.9339e+06
-1.9739e+06
-1.94986e+06
-1.8782e+06
-1.80609e+06
-1.74507e+06
-1.70365e+06
-1.68202e+06
-1.69339e+06
-1.71526e+06
-1.72906e+06
-1.77613e+06
-1.77857e+06
-1.78967e+06
-1.75991e+06
-1.7602e+06
-1.75848e+06
-1.70604e+06
-1.65452e+06
-1.60352e+06
-1.56053e+06
-1.5066e+06
-1.45092e+06
-1.40781e+06
-1.35216e+06
-1.30223e+06
-1.27356e+06
-1.25955e+06
-1.25604e+06
-1.25136e+06
-1.24164e+06
-1.23715e+06
-1.24259e+06
-1.25848e+06
-1.2806e+06
-1.30576e+06
-1.33151e+06
-1.35262e+06
-1.37657e+06
-1.37678e+06
-1.37515e+06
-1.35919e+06
-1.32816e+06
-1.29352e+06
-1.25037e+06
-1.21503e+06
-1.16638e+06
-1.11425e+06
-1.06692e+06
-1.00348e+06
-951898
-906360
-863136
-825316
-794560
-769273
-750540
-734858
-712015
-692133
-489722
-343114
-391061
-462701
-569863
-641121
-816498
-916301
-913491
-969739
-1.1611e+06
-1.04941e+06
-974707
-943920
-869037
-920353
-953464
-1.0779e+06
-1.28813e+06
-1.34711e+06
-1.37432e+06
-1.396e+06
-1.445e+06
-1.54016e+06
-1.61276e+06
-1.61713e+06
-1.60964e+06
-1.61763e+06
-1.61628e+06
-1.67142e+06
-1.71033e+06
-1.73261e+06
-1.73361e+06
-1.79448e+06
-1.79418e+06
-1.78958e+06
-1.80464e+06
-1.82742e+06
-1.86895e+06
-1.89494e+06
-1.88436e+06
-1.89257e+06
-1.87574e+06
-1.8291e+06
-1.75546e+06
-1.68211e+06
-1.62965e+06
-1.60098e+06
-1.60395e+06
-1.61979e+06
-1.64877e+06
-1.69115e+06
-1.69038e+06
-1.69692e+06
-1.67269e+06
-1.67466e+06
-1.67367e+06
-1.61526e+06
-1.56285e+06
-1.51642e+06
-1.47069e+06
-1.42253e+06
-1.37663e+06
-1.34498e+06
-1.30366e+06
-1.24824e+06
-1.22253e+06
-1.21385e+06
-1.21566e+06
-1.21854e+06
-1.20996e+06
-1.20735e+06
-1.21375e+06
-1.23053e+06
-1.25246e+06
-1.27967e+06
-1.30394e+06
-1.32402e+06
-1.34532e+06
-1.34909e+06
-1.34849e+06
-1.33621e+06
-1.30862e+06
-1.2709e+06
-1.22953e+06
-1.19348e+06
-1.14876e+06
-1.09775e+06
-1.05036e+06
-989727
-937249
-894389
-853613
-816850
-787306
-762228
-743733
-728196
-705809
-686652
-509106
-433817
-449621
-478647
-556217
-649765
-757542
-828852
-885242
-988994
-1.14677e+06
-1.1852e+06
-1.09978e+06
-1.05965e+06
-1.02866e+06
-1.04282e+06
-1.1186e+06
-1.20161e+06
-1.26485e+06
-1.31184e+06
-1.35901e+06
-1.40723e+06
-1.4366e+06
-1.50845e+06
-1.55174e+06
-1.54332e+06
-1.53645e+06
-1.52421e+06
-1.50716e+06
-1.5495e+06
-1.5742e+06
-1.5759e+06
-1.6178e+06
-1.68705e+06
-1.66481e+06
-1.68283e+06
-1.73305e+06
-1.75005e+06
-1.78516e+06
-1.81031e+06
-1.81996e+06
-1.83386e+06
-1.79486e+06
-1.74572e+06
-1.7032e+06
-1.61651e+06
-1.55673e+06
-1.5177e+06
-1.51722e+06
-1.53185e+06
-1.56688e+06
-1.60291e+06
-1.60797e+06
-1.59923e+06
-1.58547e+06
-1.57953e+06
-1.56945e+06
-1.52007e+06
-1.4734e+06
-1.43115e+06
-1.38661e+06
-1.34734e+06
-1.30583e+06
-1.28384e+06
-1.23755e+06
-1.19492e+06
-1.17376e+06
-1.16962e+06
-1.17351e+06
-1.17862e+06
-1.17916e+06
-1.17791e+06
-1.18466e+06
-1.20217e+06
-1.22429e+06
-1.25322e+06
-1.27653e+06
-1.29508e+06
-1.31449e+06
-1.32292e+06
-1.32189e+06
-1.31265e+06
-1.28437e+06
-1.24854e+06
-1.20801e+06
-1.17173e+06
-1.13056e+06
-1.08051e+06
-1.03247e+06
-972019
-922516
-882400
-842635
-808031
-779581
-754777
-736559
-721272
-699351
-680866
-513961
-487936
-489136
-506459
-563245
-621712
-675813
-741458
-828306
-951657
-1.11017e+06
-1.2167e+06
-1.20451e+06
-1.213e+06
-1.1646e+06
-1.19946e+06
-1.25486e+06
-1.28174e+06
-1.29854e+06
-1.3018e+06
-1.32503e+06
-1.3462e+06
-1.35288e+06
-1.40995e+06
-1.45261e+06
-1.47279e+06
-1.49892e+06
-1.45258e+06
-1.40938e+06
-1.44586e+06
-1.42832e+06
-1.43717e+06
-1.47852e+06
-1.51179e+06
-1.54934e+06
-1.58666e+06
-1.64613e+06
-1.67647e+06
-1.70653e+06
-1.73637e+06
-1.75251e+06
-1.74139e+06
-1.70508e+06
-1.66173e+06
-1.58988e+06
-1.51899e+06
-1.46465e+06
-1.4314e+06
-1.43437e+06
-1.44814e+06
-1.48913e+06
-1.50973e+06
-1.51336e+06
-1.50686e+06
-1.50356e+06
-1.48584e+06
-1.47048e+06
-1.43483e+06
-1.39046e+06
-1.35018e+06
-1.3072e+06
-1.27135e+06
-1.23737e+06
-1.21619e+06
-1.17745e+06
-1.14342e+06
-1.12701e+06
-1.12679e+06
-1.13269e+06
-1.14026e+06
-1.14508e+06
-1.14896e+06
-1.15539e+06
-1.17356e+06
-1.19604e+06
-1.22631e+06
-1.25039e+06
-1.26586e+06
-1.28393e+06
-1.29356e+06
-1.2951e+06
-1.28843e+06
-1.26075e+06
-1.22356e+06
-1.18587e+06
-1.14971e+06
-1.11186e+06
-1.06256e+06
-1.01387e+06
-954829
-907722
-870378
-831473
-798128
-771413
-746937
-729040
-714035
-692624
-674789
-515043
-506674
-506875
-520763
-552503
-571764
-598447
-659492
-754327
-883708
-1.05246e+06
-1.19572e+06
-1.29631e+06
-1.32056e+06
-1.30467e+06
-1.39467e+06
-1.41871e+06
-1.38311e+06
-1.35686e+06
-1.31206e+06
-1.29043e+06
-1.26571e+06
-1.28031e+06
-1.33131e+06
-1.3808e+06
-1.42868e+06
-1.39881e+06
-1.35033e+06
-1.31108e+06
-1.30981e+06
-1.30977e+06
-1.33429e+06
-1.36418e+06
-1.39661e+06
-1.44537e+06
-1.50907e+06
-1.56883e+06
-1.60209e+06
-1.63604e+06
-1.6684e+06
-1.69279e+06
-1.66156e+06
-1.6141e+06
-1.55251e+06
-1.47942e+06
-1.42198e+06
-1.37956e+06
-1.34579e+06
-1.34866e+06
-1.3666e+06
-1.39895e+06
-1.41095e+06
-1.41567e+06
-1.42147e+06
-1.41121e+06
-1.39447e+06
-1.37611e+06
-1.34633e+06
-1.31229e+06
-1.27344e+06
-1.23259e+06
-1.19906e+06
-1.17151e+06
-1.15134e+06
-1.12404e+06
-1.09406e+06
-1.08212e+06
-1.08531e+06
-1.09352e+06
-1.1038e+06
-1.11165e+06
-1.11714e+06
-1.12594e+06
-1.14481e+06
-1.16769e+06
-1.19781e+06
-1.21922e+06
-1.23636e+06
-1.25355e+06
-1.26263e+06
-1.26798e+06
-1.26367e+06
-1.23378e+06
-1.19833e+06
-1.16324e+06
-1.12733e+06
-1.09018e+06
-1.04437e+06
-995387
-937906
-892838
-856429
-819512
-787939
-761557
-738733
-721197
-706498
-685622
-668434
-514899
-508757
-506443
-513848
-522614
-517633
-528716
-579480
-667743
-790844
-957676
-1.16356e+06
-1.2872e+06
-1.39492e+06
-1.37434e+06
-1.48765e+06
-1.4764e+06
-1.38109e+06
-1.37029e+06
-1.29377e+06
-1.29149e+06
-1.21347e+06
-1.2195e+06
-1.2682e+06
-1.32469e+06
-1.33867e+06
-1.32309e+06
-1.29093e+06
-1.24064e+06
-1.2214e+06
-1.22962e+06
-1.28126e+06
-1.30855e+06
-1.32251e+06
-1.37466e+06
-1.45588e+06
-1.52757e+06
-1.54552e+06
-1.57449e+06
-1.6058e+06
-1.62768e+06
-1.57788e+06
-1.5145e+06
-1.44517e+06
-1.37362e+06
-1.32525e+06
-1.28226e+06
-1.26097e+06
-1.26637e+06
-1.28696e+06
-1.31744e+06
-1.31722e+06
-1.32255e+06
-1.33275e+06
-1.32488e+06
-1.30666e+06
-1.28767e+06
-1.26148e+06
-1.24106e+06
-1.20064e+06
-1.16231e+06
-1.13174e+06
-1.10871e+06
-1.09086e+06
-1.06828e+06
-1.04657e+06
-1.03898e+06
-1.04514e+06
-1.05573e+06
-1.06897e+06
-1.08011e+06
-1.08579e+06
-1.09646e+06
-1.11603e+06
-1.13925e+06
-1.16833e+06
-1.18864e+06
-1.20674e+06
-1.22332e+06
-1.23217e+06
-1.24107e+06
-1.23908e+06
-1.20596e+06
-1.17282e+06
-1.14027e+06
-1.10456e+06
-1.06827e+06
-1.02334e+06
-974947
-920938
-877853
-842513
-807418
-777481
-751784
-730211
-713053
-697994
-678355
-661645
-514035
-504738
-495748
-492700
-484176
-465483
-465736
-504507
-580481
-688784
-835086
-1.02204e+06
-1.17297e+06
-1.27629e+06
-1.32941e+06
-1.39691e+06
-1.3829e+06
-1.30869e+06
-1.27839e+06
-1.22108e+06
-1.16686e+06
-1.13221e+06
-1.1703e+06
-1.1918e+06
-1.23821e+06
-1.25359e+06
-1.27764e+06
-1.23712e+06
-1.19726e+06
-1.16682e+06
-1.16835e+06
-1.2051e+06
-1.22874e+06
-1.26037e+06
-1.32012e+06
-1.39579e+06
-1.45637e+06
-1.49147e+06
-1.51784e+06
-1.52688e+06
-1.51505e+06
-1.46277e+06
-1.41624e+06
-1.34366e+06
-1.27262e+06
-1.2341e+06
-1.19447e+06
-1.17918e+06
-1.18737e+06
-1.20898e+06
-1.23504e+06
-1.22802e+06
-1.23411e+06
-1.24468e+06
-1.23754e+06
-1.22235e+06
-1.20433e+06
-1.18149e+06
-1.16068e+06
-1.1318e+06
-1.09595e+06
-1.06885e+06
-1.04925e+06
-1.03455e+06
-1.01568e+06
-1.00124e+06
-997545
-1.00629e+06
-1.01916e+06
-1.03326e+06
-1.04623e+06
-1.05486e+06
-1.06709e+06
-1.08731e+06
-1.11077e+06
-1.13866e+06
-1.15866e+06
-1.17712e+06
-1.19321e+06
-1.202e+06
-1.2109e+06
-1.2116e+06
-1.17882e+06
-1.14703e+06
-1.11707e+06
-1.08138e+06
-1.04614e+06
-1.00159e+06
-954886
-903871
-862765
-828593
-795204
-766773
-741962
-721403
-704633
-689458
-670848
-654611
-512280
-496630
-477892
-462812
-440870
-412810
-406718
-438533
-505181
-598549
-719497
-868684
-1.02103e+06
-1.13293e+06
-1.21975e+06
-1.26377e+06
-1.28992e+06
-1.21382e+06
-1.17526e+06
-1.12093e+06
-1.0602e+06
-1.04605e+06
-1.0732e+06
-1.11065e+06
-1.14325e+06
-1.16924e+06
-1.1847e+06
-1.18371e+06
-1.19154e+06
-1.13312e+06
-1.11537e+06
-1.14953e+06
-1.19363e+06
-1.21039e+06
-1.27756e+06
-1.34553e+06
-1.40894e+06
-1.4441e+06
-1.46499e+06
-1.44303e+06
-1.40283e+06
-1.35171e+06
-1.30417e+06
-1.25066e+06
-1.17628e+06
-1.13547e+06
-1.11501e+06
-1.10047e+06
-1.11335e+06
-1.1331e+06
-1.14546e+06
-1.14217e+06
-1.14965e+06
-1.15952e+06
-1.15677e+06
-1.14207e+06
-1.12562e+06
-1.10592e+06
-1.08493e+06
-1.06096e+06
-1.03323e+06
-1.01012e+06
-993194
-983794
-966714
-958253
-957760
-968751
-983711
-999051
-1.01312e+06
-1.02455e+06
-1.03792e+06
-1.05871e+06
-1.08232e+06
-1.1091e+06
-1.12911e+06
-1.14758e+06
-1.16322e+06
-1.17201e+06
-1.18023e+06
-1.18055e+06
-1.15268e+06
-1.12096e+06
-1.09294e+06
-1.05779e+06
-1.02292e+06
-979708
-935189
-886707
-847586
-814642
-782884
-755837
-732015
-712334
-695957
-680823
-663127
-647339
-508937
-482855
-451140
-423447
-390624
-356717
-349366
-381652
-445593
-529759
-630227
-748366
-879163
-984668
-1.0708e+06
-1.1101e+06
-1.08952e+06
-1.04961e+06
-1.08507e+06
-1.00252e+06
-966105
-965692
-989551
-1.03358e+06
-1.05543e+06
-1.08313e+06
-1.10824e+06
-1.14382e+06
-1.14632e+06
-1.09092e+06
-1.06623e+06
-1.07791e+06
-1.10652e+06
-1.15328e+06
-1.23972e+06
-1.30343e+06
-1.35815e+06
-1.38446e+06
-1.38607e+06
-1.34551e+06
-1.28998e+06
-1.24718e+06
-1.19096e+06
-1.13934e+06
-1.08647e+06
-1.04314e+06
-1.02696e+06
-1.02408e+06
-1.036e+06
-1.06142e+06
-1.05891e+06
-1.06062e+06
-1.06936e+06
-1.07893e+06
-1.07679e+06
-1.06576e+06
-1.05126e+06
-1.03441e+06
-1.01493e+06
-994413
-974394
-955464
-940450
-933200
-920562
-916176
-919536
-932502
-949239
-966321
-981406
-993803
-1.00899e+06
-1.03028e+06
-1.05394e+06
-1.07976e+06
-1.09987e+06
-1.11815e+06
-1.13334e+06
-1.1421e+06
-1.14957e+06
-1.14907e+06
-1.12333e+06
-1.09454e+06
-1.06881e+06
-1.03384e+06
-999551
-957824
-915007
-869460
-832336
-800648
-770470
-744695
-721914
-703023
-687046
-672052
-655212
-639837
-502496
-459780
-411589
-372090
-332419
-297757
-293792
-331113
-398305
-479827
-567675
-662868
-767264
-854732
-921541
-939221
-927770
-914248
-925485
-895873
-886217
-896386
-918318
-946529
-976270
-1.01451e+06
-1.04518e+06
-1.1004e+06
-1.11828e+06
-1.04797e+06
-1.03124e+06
-1.01995e+06
-1.04898e+06
-1.10124e+06
-1.17722e+06
-1.24366e+06
-1.29806e+06
-1.32846e+06
-1.28728e+06
-1.22937e+06
-1.17575e+06
-1.1271e+06
-1.07948e+06
-1.03177e+06
-988619
-955898
-944466
-954875
-961216
-981161
-978565
-983898
-993481
-1.00289e+06
-1.00103e+06
-993565
-981146
-966814
-952684
-933183
-919342
-906998
-890994
-884620
-876922
-876352
-882865