/*--------------------------------*- C++ -*----------------------------------*\
  =========                 |
  \\      /  F ield         | OpenFOAM: The Open Source CFD Toolbox
   \\    /   O peration     | Website:  https://openfoam.org
    \\  /    A nd           | Version:  6
     \\/     M anipulation  |
\*---------------------------------------------------------------------------*/
FoamFile
{
    version     2.0;
    format      ascii;
    class       volScalarField;
    location    "0.1";
    object      HCO;
}
// * * * * * * * * * * * * * * * * * * * * * * * * * * * * * * * * * * * * * //

dimensions      [0 0 0 0 0 0 0];

internalField   nonuniform List<scalar> 
8000
(
2.78102e-11
1.03692e-07
1.12883e-06
3.54698e-06
4.063e-06
3.75004e-06
2.12659e-06
7.71909e-07
1.74115e-07
1.62331e-08
7.32874e-10
6.95713e-11
1.91911e-10
5.73436e-08
2.93392e-08
1.36547e-08
4.2683e-07
3.18977e-06
1.58843e-06
5.05546e-07
5.83396e-07
1.15385e-06
2.47081e-06
4.15677e-06
3.24826e-06
2.84096e-06
2.77831e-06
2.56165e-06
2.45161e-06
9.05733e-06
2.93535e-06
2.44995e-06
2.55352e-06
2.07791e-06
1.72803e-06
1.51183e-06
1.40986e-06
1.47536e-06
1.9333e-06
2.33806e-06
1.71218e-06
1.24097e-06
1.09062e-06
1.15007e-06
1.28847e-06
1.27327e-06
1.18563e-06
1.13064e-06
1.26155e-06
1.04542e-05
3.4674e-07
8.12096e-07
7.73829e-07
7.34324e-07
6.50146e-07
5.44111e-07
4.4734e-07
3.78199e-07
3.3826e-07
3.268e-07
2.93767e-07
3.43674e-07
2.52232e-07
3.10147e-07
1.45753e-07
1.54113e-08
2.24432e-07
1.56818e-07
1.77223e-07
1.87937e-07
9.50651e-07
2.14295e-07
2.13251e-07
6.09003e-07
6.03432e-07
2.0369e-07
2.0397e-07
1.98161e-07
1.87062e-07
1.83207e-07
1.96748e-07
1.99748e-07
2.13161e-07
6.16846e-07
6.23374e-07
6.06718e-07
5.89753e-07
5.60907e-07
3.12978e-06
4.37588e-07
3.62136e-07
3.09745e-07
2.80055e-07
2.50949e-07
1.85384e-07
1.54626e-07
1.35261e-07
1.21122e-07
1.11952e-07
8.19807e-08
1.47103e-11
1.16308e-07
1.25252e-06
3.64777e-06
4.28716e-06
3.73101e-06
1.99521e-06
7.2949e-07
1.53663e-07
1.20505e-08
4.91004e-10
8.54034e-11
5.76844e-10
5.43802e-07
3.26992e-07
5.37946e-08
1.11927e-07
7.32844e-07
8.43823e-07
9.38703e-07
8.5145e-07
1.35579e-06
2.63943e-06
4.20542e-06
3.21364e-06
2.88593e-06
2.73054e-06
2.5632e-06
2.38763e-06
2.75198e-06
1.94228e-06
2.33401e-06
2.42335e-06
2.07286e-06
1.8513e-06
1.70028e-06
1.60305e-06
1.64334e-06
2.14354e-06
6.10279e-06
2.06358e-06
1.34321e-06
1.14663e-06
1.19077e-06
1.30674e-06
1.27837e-06
1.17798e-06
1.12289e-06
1.31323e-06
9.21846e-07
9.29307e-07
8.3678e-07
7.66149e-07
7.10831e-07
6.30754e-07
5.30459e-07
4.39362e-07
3.75363e-07
3.39295e-07
3.30955e-07
3.00601e-07
3.48447e-07
2.49987e-07
3.49179e-07
3.87065e-08
1.54509e-08
2.25809e-07
1.57539e-07
1.77734e-07
1.89067e-07
1.966e-07
2.14762e-07
2.1321e-07
6.09403e-07
6.03746e-07
2.03756e-07
2.04431e-07
1.98477e-07
1.87728e-07
1.82823e-07
1.9703e-07
1.99702e-07
2.13319e-07
6.17122e-07
6.23272e-07
6.06192e-07
5.89047e-07
5.60284e-07
5.46351e-07
4.36423e-07
3.61706e-07
3.09254e-07
2.7967e-07
2.50847e-07
1.85037e-07
1.5442e-07
1.35083e-07
1.20977e-07
1.11993e-07
8.18638e-08
1.44399e-11
1.86393e-07
1.30466e-06
3.14375e-06
3.48197e-06
2.70714e-06
1.36548e-06
9.73899e-07
7.78951e-07
9.09567e-09
4.14328e-08
8.3055e-11
1.31399e-09
1.45718e-06
1.75411e-06
1.89545e-07
4.14528e-08
1.07901e-07
1.73309e-06
9.18725e-06
1.82481e-06
1.85392e-06
3.00131e-06
4.26773e-06
3.13275e-06
3.10084e-06
2.79113e-06
2.56289e-06
2.27806e-06
2.04131e-06
1.99603e-06
2.22456e-06
2.30674e-06
2.10919e-06
2.12798e-06
2.15291e-06
2.0295e-06
1.98622e-06
2.03212e-06
2.07617e-06
1.64562e-06
1.33619e-06
1.22142e-06
1.25347e-06
1.33602e-06
1.28646e-06
1.1594e-06
1.15166e-06
1.32997e-06
1.06702e-06
8.22029e-07
7.99795e-07
6.86987e-07
6.52016e-07
5.91187e-07
5.03781e-07
4.23191e-07
3.69623e-07
3.41873e-07
3.18065e-07
3.14836e-07
3.56952e-07
2.44094e-07
2.3494e-07
4.61344e-08
1.5524e-08
1.47819e-07
1.59248e-07
1.78697e-07
1.9128e-07
2.00422e-07
2.15569e-07
2.28075e-06
6.10337e-07
6.04414e-07
1.64881e-06
2.05457e-07
1.99165e-07
1.89068e-07
8.08111e-07
1.97676e-07
1.99588e-07
2.13696e-07
6.17657e-07
2.88578e-06
6.05017e-07
5.87353e-07
5.58994e-07
5.31477e-07
4.34292e-07
3.60773e-07
3.08182e-07
3.92858e-06
4.03314e-06
1.84271e-07
1.53972e-07
1.34694e-07
1.20658e-07
4.32467e-06
8.16052e-08
3.11523e-11
3.4523e-07
2.3729e-06
3.31378e-06
2.60355e-06
1.70774e-06
7.98058e-07
2.56658e-07
3.20531e-08
1.15602e-09
3.58657e-11
1.79958e-11
2.99568e-10
2.59323e-06
2.79448e-06
3.87908e-07
2.24577e-08
3.79659e-08
7.82364e-07
1.4923e-06
1.26703e-06
1.92604e-06
3.2996e-06
3.86106e-06
3.03174e-06
1.02151e-06
3.0856e-06
2.56689e-06
2.24126e-06
2.04402e-06
2.01047e-06
2.14749e-06
2.23734e-06
2.1429e-06
2.4226e-06
6.09368e-06
2.60582e-06
5.34626e-06
2.23511e-06
1.99428e-06
1.67495e-06
1.4537e-06
1.32642e-06
1.31222e-06
1.2338e-06
1.16585e-06
1.17228e-06
1.14884e-06
1.27829e-06
1.03346e-06
8.01159e-07
7.11493e-07
4.40934e-08
5.79773e-07
5.44859e-07
4.71396e-07
4.02274e-07
3.62794e-07
3.49233e-07
3.01067e-07
3.337e-07
2.77194e-07
2.33137e-07
8.0317e-08
5.90662e-08
1.57875e-08
1.51075e-07
1.62266e-07
1.79814e-07
1.93707e-07
1.51188e-06
6.05309e-07
6.04701e-07
6.11818e-07
6.05406e-07
2.08661e-07
2.07036e-07
2.00191e-07
1.90995e-07
1.88683e-07
1.9873e-07
1.99374e-07
2.14333e-07
6.1828e-07
6.21197e-07
6.03164e-07
5.8475e-07
5.57126e-07
5.2067e-07
4.31414e-07
3.59375e-07
3.0658e-07
2.73826e-07
2.42175e-07
1.83079e-07
1.53304e-07
1.34106e-07
1.20174e-07
1.08158e-07
8.11945e-08
1.98227e-11
5.93243e-07
1.32601e-06
4.39127e-06
2.16474e-06
1.09013e-06
3.82446e-07
6.67232e-08
3.95067e-09
8.41147e-11
1.36786e-09
3.67616e-11
4.80356e-11
2.82337e-07
9.02373e-07
6.62897e-08
1.01141e-08
2.28541e-08
2.73863e-07
6.36471e-07
1.11284e-06
2.21298e-06
3.73279e-06
3.78829e-06
3.05074e-06
3.00106e-06
2.78488e-06
2.49383e-06
2.17873e-06
2.07746e-06
2.01628e-06
2.11177e-06
2.20539e-06
2.11301e-06
2.16741e-06
2.22279e-06
2.17767e-06
2.17948e-06
2.20012e-06
6.00404e-06
1.81757e-06
1.58083e-06
1.40919e-06
1.21587e-06
1.25731e-06
1.14633e-06
1.06909e-06
1.06031e-06
1.18381e-06
9.58553e-07
7.51932e-07
7.0097e-07
6.47955e-07
5.49908e-07
5.05772e-07
4.39739e-07
3.8068e-07
3.57791e-07
3.44986e-07
3.26623e-07
3.53804e-07
2.72844e-07
2.14487e-07
2.79055e-08
3.59693e-08
2.1263e-07
1.55964e-07
1.66907e-07
8.38835e-07
1.9655e-07
2.06574e-07
6.07632e-07
6.09711e-07
6.13699e-07
6.06642e-07
2.11462e-07
2.08971e-07
2.01472e-07
1.9293e-07
1.92774e-07
2.00045e-07
1.30881e-06
2.15284e-07
2.6655e-06
6.18201e-07
6.00769e-07
5.81287e-07
5.54757e-07
5.09685e-07
4.27879e-07
3.57531e-07
3.0449e-07
2.69442e-07
2.357e-07
1.81573e-07
1.52411e-07
1.33325e-07
1.19533e-07
1.0514e-07
8.06803e-08
5.27173e-12
1.11724e-06
4.80504e-06
2.93967e-06
1.24652e-06
5.61004e-07
1.20753e-07
3.8457e-07
3.21253e-10
5.7474e-12
1.1748e-12
2.20413e-12
1.78952e-11
3.48011e-08
7.28666e-08
2.43175e-08
4.75397e-08
5.40321e-08
3.46145e-07
5.31659e-07
1.37177e-06
2.84888e-06
7.26806e-06
3.50415e-06
2.97974e-06
2.89091e-06
2.66436e-06
2.4904e-06
2.25736e-06
2.06964e-06
2.01562e-06
2.10493e-06
1.96482e-06
2.10658e-06
2.06537e-06
2.03365e-06
2.01623e-06
2.03574e-06
2.0555e-06
1.75855e-06
1.58312e-06
1.45775e-06
4.27541e-06
1.24343e-06
1.14207e-06
1.14786e-06
1.11454e-06
1.01821e-06
1.08352e-06
3.51782e-07
6.9771e-07
6.69035e-07
7.04308e-08
5.02886e-07
4.67025e-07
4.1212e-07
3.66896e-07
3.70629e-07
3.30619e-07
3.58188e-07
3.68258e-07
2.60599e-07
1.87108e-07
3.32594e-08
4.19472e-08
2.19939e-07
1.62246e-07
1.7275e-07
1.86963e-07
1.99748e-07
2.09962e-07
6.10292e-07
6.13566e-07
6.14599e-07
6.07981e-07
2.13538e-07
2.10445e-07
2.02952e-07
1.95162e-07
1.95438e-07
2.01569e-07
1.435e-06
6.05665e-07
6.17572e-07
6.15479e-07
5.97866e-07
5.76972e-07
5.51679e-07
4.99927e-07
4.23781e-07
3.55258e-07
3.01951e-07
2.65374e-07
4.06564e-06
1.798e-07
1.51236e-07
1.32352e-07
1.18748e-07
1.02669e-07
8.0078e-08
5.08524e-13
1.96331e-07
2.34632e-06
1.27025e-06
5.04204e-07
1.90055e-07
5.25051e-07
1.8499e-07
6.65035e-09
3.59242e-12
1.72542e-12
1.03884e-11
1.53997e-09
4.85418e-09
8.72955e-09
6.81343e-09
1.96246e-08
6.72563e-08
2.30794e-07
7.23808e-07
4.98919e-06
3.58987e-06
3.82082e-06
3.23731e-06
2.86723e-06
1.48917e-06
1.59507e-06
2.45122e-06
2.08373e-06
2.13597e-06
1.99403e-06
1.91662e-06
2.00356e-06
1.91029e-06
1.84342e-06
1.79394e-06
1.98958e-06
1.76178e-06
1.74573e-06
1.70844e-06
4.03483e-06
1.39591e-06
1.27568e-06
1.12394e-06
1.12246e-06
1.04075e-06
1.29454e-06
1.08005e-06
9.98282e-07
8.16175e-07
6.71463e-07
5.62665e-07
1.00516e-07
4.63634e-07
4.37716e-07
4.02167e-07
3.76347e-07
3.11826e-07
3.61901e-07
3.90905e-07
3.67717e-07
2.38882e-07
3.61134e-07
1.59275e-07
2.10586e-07
1.47343e-07
1.68912e-07
1.79872e-07
1.91379e-07
2.02796e-07
2.11629e-07
6.11889e-07
6.14494e-07
6.14719e-07
6.09425e-07
5.99713e-07
2.1178e-07
2.04729e-07
1.97601e-07
1.34951e-06
2.03161e-07
2.05366e-07
6.0829e-07
6.1569e-07
6.12845e-07
5.94486e-07
5.7185e-07
2.932e-06
4.89559e-07
4.17824e-07
3.5257e-07
2.99005e-07
2.61326e-07
2.24358e-07
1.77767e-07
1.49845e-07
1.31199e-07
1.17828e-07
1.00576e-07
7.93952e-08
2.44206e-11
2.29246e-07
1.05863e-06
3.80976e-07
1.14288e-07
2.08433e-08
1.96604e-07
3.33724e-10
1.03047e-11
3.35691e-12
4.11031e-11
1.40239e-09
3.50415e-09
4.7967e-08
6.20435e-09
1.04364e-08
4.48534e-08
1.62102e-07
4.27092e-07
1.03294e-06
2.29544e-06
8.00207e-06
3.74724e-06
3.06363e-06
2.94216e-06
2.72737e-06
2.59708e-06
2.40007e-06
2.24834e-06
2.08042e-06
2.91748e-06
1.91116e-06
1.84696e-06
1.7834e-06
1.70408e-06
4.25866e-06
1.78487e-06
1.75505e-06
1.5585e-06
1.48571e-06
1.35496e-06
1.35023e-06
1.26573e-06
1.11484e-06
1.08731e-06
9.87011e-07
9.60711e-07
8.58218e-07
9.16195e-07
7.52553e-07
6.30593e-07
5.05595e-07
1.92472e-07
4.16448e-07
4.00222e-07
3.80054e-07
3.6871e-07
3.52269e-07
3.98292e-07
3.20602e-07
2.61106e-07
5.86927e-07
3.48585e-07
6.88212e-08
1.62838e-08
1.54691e-07
1.75771e-07
1.87291e-07
1.95027e-07
2.10455e-06
2.59273e-06
6.12061e-07
6.14835e-07
6.1327e-07
2.74844e-06
6.02928e-07
5.94287e-07
2.06821e-07
2.00065e-07
1.49323e-06
2.0489e-07
2.08737e-07
6.10968e-07
6.1389e-07
3.18558e-06
5.90703e-07
5.65963e-07
5.36142e-07
4.78634e-07
4.11347e-07
3.48701e-07
2.95702e-07
2.57244e-07
2.18014e-07
1.75532e-07
1.48252e-07
1.29867e-07
1.16771e-07
9.87526e-08
7.8634e-08
2.32901e-14
5.90143e-09
5.06606e-07
4.60109e-07
9.61317e-09
7.46062e-10
1.61763e-10
1.45535e-11
4.43482e-12
1.41429e-11
8.83898e-11
8.22003e-09
4.70101e-07
9.53744e-08
1.96626e-07
1.51549e-07
4.07286e-07
4.21251e-07
1.98921e-06
1.57e-06
2.63511e-06
3.76717e-06
3.59323e-06
2.98642e-06
1.62006e-06
1.16018e-06
2.51906e-06
2.43442e-06
1.67563e-06
2.1056e-06
2.00436e-06
1.96273e-06
1.87636e-06
1.84103e-06
1.79552e-06
1.66169e-06
3.84771e-06
1.59228e-06
1.51178e-06
3.76026e-06
1.33103e-06
1.22086e-06
1.14619e-06
1.09597e-06
1.0414e-06
9.26511e-07
9.04602e-07
7.79821e-07
8.19574e-07
6.74994e-07
5.75992e-07
4.88792e-07
4.15332e-07
3.70769e-07
3.70481e-07
3.55293e-07
3.51166e-07
3.87355e-07
4.27632e-07
3.15585e-07
6.24929e-07
8.36387e-07
5.18097e-08
2.26928e-07
2.1585e-07
1.63378e-07
1.82939e-07
1.93261e-07
1.70802e-06
2.09559e-07
6.00783e-07
6.12092e-07
6.13922e-07
6.10653e-07
6.08523e-07
6.04839e-07
5.96584e-07
2.08645e-07
1.71591e-06
2.04034e-07
1.96351e-06
2.2741e-06
6.12008e-07
6.12096e-07
3.20796e-06
5.86087e-07
5.59311e-07
5.24839e-07
4.67772e-07
4.04882e-07
3.44069e-07
2.92091e-07
2.51389e-07
2.12367e-07
1.73122e-07
1.46464e-07
1.28384e-07
1.15629e-07
9.71339e-08
7.77954e-08
9.4677e-16
1.92599e-10
7.37421e-09
1.36614e-07
2.74809e-10
1.43727e-11
1.08679e-09
3.83658e-12
3.62882e-11
1.98193e-10
9.20695e-10
3.26561e-08
6.76097e-07
2.24116e-06
2.67666e-07
1.84805e-07
3.10525e-07
8.62914e-07
3.91393e-06
5.44438e-06
6.9745e-06
3.74603e-06
3.42178e-06
2.87489e-06
2.65201e-06
1.34815e-06
2.4777e-06
2.3913e-06
2.2491e-06
2.14023e-06
2.12213e-06
2.04674e-06
2.12107e-06
1.95966e-06
2.67413e-06
1.82593e-06
1.7138e-06
1.59529e-06
1.53233e-06
1.45829e-06
1.31414e-06
1.21841e-06
1.13709e-06
1.06036e-06
9.82218e-07
8.87555e-07
8.20706e-07
6.87615e-07
7.14928e-07
5.96934e-07
5.21912e-07
4.60579e-07
4.29854e-07
3.91375e-07
3.86315e-07
3.85732e-07
6.22854e-07
8.06437e-07
3.31174e-07
2.95627e-07
2.21558e-07
9.52048e-08
5.59038e-08
1.68069e-08
5.11477e-07
8.97509e-07
1.88644e-07
1.99345e-07
2.2993e-06
5.89134e-07
6.02283e-07
6.1119e-07
6.08388e-07
6.07085e-07
6.05764e-07
6.05085e-07
2.77342e-06
2.49252e-06
2.05997e-07
2.07799e-07
2.09984e-07
5.96332e-07
6.10211e-07
6.09848e-07
5.99783e-07
5.83492e-07
5.51968e-07
5.13705e-07
4.5693e-07
3.97983e-07
3.38981e-07
2.8847e-07
2.45674e-07
2.07e-07
1.7034e-07
1.44492e-07
1.2677e-07
1.14349e-07
9.56937e-08
7.68779e-08
3.82801e-17
6.19116e-10
2.04043e-08
1.60162e-08
8.6523e-12
2.56971e-12
4.08904e-12
3.94471e-11
7.3674e-11
1.9095e-09
1.57295e-08
1.73372e-07
5.17652e-06
5.10863e-06
8.85114e-07
4.42578e-07
1.25705e-06
1.16233e-06
2.29746e-06
3.10663e-06
3.54694e-06
3.71335e-06
3.2591e-06
2.7495e-06
2.51754e-06
2.59205e-06
2.39085e-06
2.31937e-06
2.254e-06
2.13308e-06
2.1064e-06
2.11161e-06
2.09352e-06
2.04724e-06
2.03535e-06
1.89335e-06
1.89632e-06
2.17009e-06
1.64534e-06
2.70462e-06
1.30569e-06
1.24661e-06
1.15188e-06
1.00373e-06
9.28493e-07
8.3444e-07
7.28414e-07
6.03566e-07
8.60407e-07
5.29951e-07
4.80229e-07
4.38583e-07
4.04606e-07
4.18739e-07
7.32481e-07
4.18924e-07
7.97801e-07
3.27635e-07
3.10977e-07
2.58721e-07
4.4949e-07
3.84343e-07
4.58209e-08
2.12802e-07
1.589e-07
1.81923e-07
1.93938e-07
2.03204e-07
5.75136e-07
2.87327e-06
6.03055e-07
6.03679e-07
6.01163e-07
6.00578e-07
6.02529e-07
6.02551e-07
5.9982e-07
5.89668e-07
2.08307e-07
2.46535e-06
5.91853e-07
6.0104e-07
6.08088e-07
6.05229e-07
5.93659e-07
5.78137e-07
5.44122e-07
5.02399e-07
4.46768e-07
3.36417e-06
3.33546e-07
2.84556e-07
2.40211e-07
2.01825e-07
1.67394e-07
1.42419e-07
1.24994e-07
1.12947e-07
9.36716e-08
7.59092e-08
7.51933e-13
6.72007e-11
1.15027e-09
1.35925e-09
1.55805e-11
7.73803e-11
8.09128e-11
1.93517e-09
5.60248e-09
1.29278e-08
4.93597e-08
1.4146e-07
1.77271e-06
8.15261e-06
1.61732e-06
6.75641e-07
6.84033e-07
1.31889e-06
3.11386e-06
8.34194e-06
3.70801e-06
3.31684e-06
3.33736e-06
2.60346e-06
2.43637e-06
1.45046e-06
1.15353e-06
2.2215e-06
2.23583e-06
1.29998e-06
2.15497e-06
2.10231e-06
2.014e-06
1.96897e-06
1.92162e-06
2.12613e-06
1.9185e-06
1.95248e-06
1.97046e-06
1.50741e-06
1.34053e-06
1.20457e-06
1.09253e-06
9.86613e-07
8.98278e-07
7.75159e-07
6.14994e-07
5.44523e-07
5.21204e-07
4.85894e-07
9.84752e-07
9.80336e-07
9.67228e-07
3.74839e-07
3.53921e-07
3.41255e-07
3.21549e-07
3.09874e-07
2.72373e-07
4.81424e-07
6.1463e-08
2.41644e-07
1.69792e-08
1.45764e-07
1.70393e-07
1.89538e-07
2.48686e-06
2.82259e-06
5.78933e-07
5.91578e-07
5.98395e-07
5.9553e-07
5.93345e-07
5.93607e-07
5.95936e-07
5.99524e-07
5.99183e-07
5.93089e-07
5.84481e-07
5.89552e-07
5.95493e-07
6.04123e-07
6.05835e-07
6.00458e-07
5.84961e-07
5.72279e-07
5.35831e-07
4.90949e-07
4.36642e-07
3.7829e-07
3.28179e-07
3.80177e-06
2.35062e-07
1.96784e-07
1.64425e-07
1.40252e-07
1.23076e-07
1.1144e-07
9.1788e-08
7.48779e-08
1.39542e-12
3.35098e-14
9.25427e-13
3.82881e-11
4.62632e-10
3.54482e-09
3.07666e-09
2.91844e-08
3.33395e-08
9.65281e-08
1.62625e-07
4.48943e-07
2.03588e-06
4.84529e-06
1.8152e-06
8.49714e-07
9.21931e-07
1.57752e-06
2.93525e-06
3.65085e-06
3.74253e-06
3.22225e-06
2.83039e-06
2.45055e-06
2.33734e-06
1.70087e-06
2.27674e-06
2.177e-06
9.78319e-07
2.21011e-06
1.06378e-06
2.29083e-06
2.3942e-06
2.31723e-06
2.08851e-06
2.01116e-06
2.09227e-06
2.00783e-06
1.6903e-06
1.48565e-06
1.6361e-06
1.816e-06
1.08888e-06
9.07507e-07
1.30549e-06
6.79129e-07
5.37724e-07
1.45991e-06
4.19574e-07
4.69685e-07
1.25985e-06
4.16341e-07
3.90601e-07
3.64297e-07
1.05527e-06
9.79486e-07
3.00419e-07
7.5027e-07
5.41295e-07
1.14085e-07
5.5416e-08
3.64214e-07
5.84121e-07
1.58157e-07
1.49514e-06
1.95438e-07
2.77585e-06
5.5917e-07
5.77965e-07
5.86774e-07
5.89484e-07
5.86101e-07
5.84193e-07
5.86055e-07
5.89104e-07
5.93706e-07
5.95796e-07
5.93744e-07
2.71576e-06
5.93165e-07
5.98445e-07
2.80797e-06
6.02441e-07
5.95288e-07
5.75975e-07
5.6461e-07
5.2696e-07
4.7941e-07
4.26392e-07
3.67179e-07
3.58613e-06
2.72731e-07
2.29869e-07
1.91913e-07
1.61323e-07
1.37938e-07
1.2106e-07
1.0899e-07
8.99264e-08
7.3803e-08
2.48256e-14
2.81875e-11
1.82251e-11
5.67687e-09
4.54136e-07
6.93237e-08
8.80488e-08
5.76191e-07
1.12508e-06
4.0452e-06
9.15963e-07
4.17824e-06
2.55185e-06
6.20647e-06
5.16347e-06
1.15987e-06
1.42277e-06
5.34019e-06
6.98766e-06
8.54796e-06
3.33941e-06
3.30036e-06
2.59464e-06
2.41017e-06
2.24053e-06
2.10691e-06
2.03182e-06
2.04464e-06
1.96937e-06
2.01983e-06
1.93194e-06
2.19833e-06
2.25995e-06
9.48057e-07
2.09068e-06
2.0105e-06
1.92619e-06
1.84226e-06
1.18113e-06
1.39069e-06
1.30794e-06
1.1128e-06
9.67666e-07
8.40045e-07
1.17868e-06
6.11008e-07
5.4509e-07
5.05148e-07
3.76174e-07
3.65655e-07
3.69316e-07
3.66271e-07
3.4486e-07
1.07823e-06
1.13754e-06
2.91699e-07
2.635e-07
1.31e-06
1.38076e-07
7.07171e-08
1.37832e-08
1.70784e-08
7.47575e-07
1.70057e-07
1.88786e-07
5.13853e-07
5.37172e-07
5.52724e-07
5.68362e-07
5.77219e-07
5.77559e-07
5.73343e-07
5.7201e-07
5.75881e-07
5.81869e-07
5.86863e-07
5.9143e-07
5.92261e-07
5.89778e-07
5.94241e-07
5.98415e-07
6.0299e-07
5.96732e-07
3.16632e-06
5.67659e-07
2.76567e-06
2.90653e-06
4.67635e-07
4.16428e-07
3.56308e-07
3.12191e-07
2.65394e-07
2.24636e-07
1.87389e-07
1.58116e-07
1.35486e-07
1.18993e-07
1.06562e-07
8.80654e-08
7.27174e-08
2.02477e-09
3.40923e-10
2.39186e-09
2.44868e-07
9.15023e-06
1.01761e-06
1.69903e-06
1.28075e-06
4.45346e-06
2.33132e-06
4.7301e-06
4.6989e-06
2.76662e-06
5.89236e-06
5.55899e-06
1.66172e-06
2.16489e-06
6.13798e-06
3.46863e-06
8.07474e-06
3.19977e-06
2.72234e-06
2.85676e-06
2.18915e-06
2.11507e-06
1.90946e-06
1.6129e-06
1.86903e-06
1.7816e-06
1.83375e-06
1.85747e-06
1.78793e-06
1.16448e-06
1.90546e-06
1.02942e-06
1.83302e-06
1.75539e-06
7.32982e-07
1.01126e-06
1.29539e-06
1.20709e-06
1.06127e-06
8.97486e-07
7.26638e-07
5.86798e-07
5.37144e-07
4.96772e-07
4.89134e-07
5.19375e-07
1.30263e-06
7.36006e-07
4.20492e-07
4.53768e-07
4.89138e-07
5.34927e-07
1.41801e-06
4.90045e-07
3.265e-07
8.27554e-08
4.02133e-07
2.07462e-07
1.43387e-07
1.61151e-07
1.79819e-07
4.89265e-07
5.12121e-07
5.29125e-07
5.41954e-07
3.18734e-06
5.63927e-07
5.65913e-07
5.62152e-07
5.606e-07
5.64068e-07
5.72514e-07
5.79455e-07
5.84159e-07
5.88712e-07
2.8821e-06
5.93652e-07
5.97834e-07
6.00432e-07
5.90796e-07
5.81486e-07
5.58274e-07
5.42428e-07
5.01417e-07
4.52759e-07
4.06796e-07
3.46155e-07
3.63101e-06
2.58598e-07
2.18914e-07
1.82865e-07
1.54547e-07
1.32838e-07
1.16802e-07
1.0414e-07
8.62046e-08
7.156e-08
7.1122e-07
1.18261e-07
1.45228e-07
5.27623e-06
6.92141e-06
5.56922e-06
2.00576e-06
5.95792e-06
5.65012e-06
2.99458e-06
3.11997e-06
5.68973e-06
3.53078e-06
3.84754e-06
2.901e-06
4.87167e-06
2.71139e-06
2.99528e-06
3.31655e-06
3.49364e-06
3.89918e-06
3.15989e-06
2.20363e-06
2.80165e-06
2.23495e-06
1.89731e-06
1.97398e-06
1.60923e-06
1.54168e-06
1.5715e-06
1.50578e-06
1.37558e-06
1.51478e-06
1.45452e-06
1.46311e-06
8.91887e-07
8.63877e-07
1.60373e-06
1.45658e-06
1.12657e-06
1.06903e-06
8.98362e-07
1.03216e-06
6.01172e-07
1.62579e-06
4.85159e-07
2.07399e-06
5.24569e-07
6.62568e-07
1.77804e-06
7.96052e-07
6.47101e-07
5.33968e-07
5.12671e-07
4.44991e-07
3.58911e-07
1.6743e-07
4.60303e-07
4.22417e-07
2.12981e-07
8.94268e-07
1.24128e-06
1.75401e-07
4.66558e-07
4.9355e-07
5.02901e-07
5.13101e-07
5.23583e-07
5.38706e-07
5.49406e-07
5.48937e-07
5.43962e-07
5.44008e-07
5.50127e-07
2.73508e-06
5.68734e-07
5.75638e-07
3.23821e-06
5.88615e-07
3.04378e-06
5.94597e-07
5.9318e-07
5.83243e-07
5.69044e-07
5.44801e-07
2.84187e-06
4.84165e-07
4.34407e-07
3.93292e-07
3.449e-06
2.90457e-07
2.50813e-07
2.11907e-07
1.77426e-07
1.50187e-07
1.29229e-07
1.14031e-07
1.01321e-07
8.39543e-08
7.01332e-08
3.49168e-07
1.11446e-06
1.31039e-06
2.15934e-06
3.30553e-06
2.4557e-06
2.73117e-06
3.46013e-06
3.33348e-06
3.35242e-06
6.47194e-06
6.26692e-06
6.13989e-06
4.15429e-06
5.82662e-06
3.12395e-06
3.11932e-06
6.66924e-06
8.01178e-06
3.16197e-06
2.5805e-06
2.32445e-06
1.94679e-06
1.78613e-06
2.29562e-06
2.25585e-06
2.29663e-06
1.45759e-06
2.3801e-06
1.28975e-06
1.21616e-06
1.22639e-06
1.19424e-06
1.19281e-06
1.23141e-06
1.19901e-06
1.17196e-06
1.14388e-06
1.14356e-06
1.04181e-06
1.05913e-06
8.93046e-07
1.07185e-06
5.66907e-07
4.8182e-07
4.73329e-07
8.79463e-07
9.46964e-07
7.75951e-07
5.12135e-07
9.69228e-08
4.0345e-07
4.08051e-07
4.14368e-07
4.55292e-08
3.33267e-08
4.235e-07
6.48971e-07
1.43651e-07
1.13198e-06
1.53397e-06
2.35469e-06
4.44409e-07
4.74515e-07
4.87528e-07
4.83575e-07
4.86317e-07
4.96691e-07
5.12812e-07
5.25281e-07
5.23069e-07
5.1892e-07
5.19306e-07
5.2845e-07
5.42285e-07
5.52977e-07
5.63238e-07
5.68609e-07
5.77633e-07
5.8113e-07
5.85516e-07
5.84073e-07
5.72072e-07
5.55777e-07
5.25675e-07
5.05849e-07
4.64754e-07
4.14502e-07
3.73755e-07
3.17619e-07
2.7717e-07
2.39394e-07
2.03809e-07
1.71048e-07
1.45173e-07
1.24936e-07
1.10638e-07
9.81557e-08
8.13655e-08
6.83493e-08
9.60884e-07
3.75612e-07
2.99804e-06
3.18978e-06
2.87064e-06
2.02641e-06
1.59898e-06
1.94902e-06
2.41746e-06
2.98146e-06
7.93061e-06
4.13823e-06
4.31612e-06
6.0939e-06
6.02467e-06
6.19816e-06
3.42185e-06
3.28195e-06
7.10007e-06
2.54555e-06
5.00004e-06
2.006e-06
1.84333e-06
1.53033e-06
2.79685e-06
1.3466e-06
1.27356e-06
1.22098e-06
2.95879e-06
1.04877e-06
2.54142e-06
2.48121e-06
9.42387e-07
9.23037e-07
2.17023e-06
9.27813e-07
9.59848e-07
9.95284e-07
9.65474e-07
1.27947e-06
7.62598e-07
6.26135e-07
5.66777e-07
1.97725e-06
4.74422e-07
8.88746e-07
8.95078e-07
4.57173e-07
2.37434e-07
1.69749e-07
1.59028e-07
5.25372e-07
1.44448e-07
5.77493e-07
1.43583e-07
6.8571e-07
7.34377e-07
1.05601e-06
1.65517e-07
1.72554e-07
1.77725e-07
4.23394e-07
4.41741e-07
4.65816e-07
2.75773e-06
4.53311e-07
4.53622e-07
4.65727e-07
2.91408e-06
2.91937e-06
4.96359e-07
4.92429e-07
4.94618e-07
5.04392e-07
5.18691e-07
5.37081e-07
5.46187e-07
5.53602e-07
5.64736e-07
5.70137e-07
5.74158e-07
5.73197e-07
2.76648e-06
5.38302e-07
5.06289e-07
4.79869e-07
4.45021e-07
3.95305e-07
3.53862e-07
3.51324e-06
2.6236e-07
2.2934e-07
1.95713e-07
1.64976e-07
1.40118e-07
1.20592e-07
1.06644e-07
9.49631e-08
7.88323e-08
6.64461e-08
1.16272e-06
7.46481e-07
1.9184e-06
2.73236e-06
1.88392e-06
8.56873e-07
5.67326e-07
5.01757e-07
8.12364e-07
1.66452e-06
2.76947e-06
3.62499e-06
4.17275e-06
4.50449e-06
6.45566e-06
3.86642e-06
3.49522e-06
8.17315e-06
2.89239e-06
2.26964e-06
1.93187e-06
4.62583e-06
4.29871e-06
3.32322e-06
3.08384e-06
1.13394e-06
1.04798e-06
1.01922e-06
9.29178e-07
8.65188e-07
3.26925e-06
7.81122e-07
7.7323e-07
2.77214e-06
7.98092e-07
8.35238e-07
2.31628e-06
8.20312e-07
7.73163e-07
7.29688e-07
6.57717e-07
1.82338e-06
4.94508e-07
4.7693e-07
2.97453e-06
1.58163e-06
1.40705e-06
2.00285e-07
1.97458e-07
1.91837e-07
1.82077e-07
1.07636e-06
1.05432e-06
1.65505e-07
1.66073e-07
1.64732e-07
1.65456e-07
1.73214e-07
1.78285e-07
4.07516e-07
4.07685e-07
2.97275e-06
4.2353e-07
2.71891e-06
4.35078e-07
4.17132e-07
4.14097e-07
4.26348e-07
4.44161e-07
4.60061e-07
2.96443e-06
4.61764e-07
4.63121e-07
4.77403e-07
4.94689e-07
5.15285e-07
5.29341e-07
5.35657e-07
5.4704e-07
2.95956e-06
5.58949e-07
5.58189e-07
5.44045e-07
5.17772e-07
4.84986e-07
4.55372e-07
4.21108e-07
3.76092e-07
3.35481e-07
2.86175e-07
2.48546e-07
2.19769e-07
1.86981e-07
1.5853e-07
1.34913e-07
1.16054e-07
1.02618e-07
9.16743e-08
7.6282e-08
6.44872e-08
1.2197e-06
1.06715e-06
2.15581e-06
2.6183e-06
2.58179e-06
3.03773e-06
2.78055e-06
1.51535e-06
6.4865e-07
7.7059e-07
1.35521e-06
6.85693e-06
3.62126e-06
7.46735e-06
4.12245e-06
3.77519e-06
3.37018e-06
2.64478e-06
2.28419e-06
1.95582e-06
1.62119e-06
6.63551e-06
1.26731e-06
1.1683e-06
9.70655e-07
9.09191e-07
8.28486e-07
3.9018e-06
8.31941e-07
3.79604e-06
7.6096e-07
7.57774e-07
3.47774e-06
6.65853e-07
3.2525e-06
7.23757e-07
7.29974e-07
7.37755e-07
7.50726e-07
6.25104e-07
5.3744e-07
4.88156e-07
6.7393e-07
3.16347e-06
8.54131e-07
2.84337e-07
5.40437e-07
5.35982e-07
5.35224e-07
5.28163e-07
2.54555e-06
2.42195e-06
2.31265e-06
1.83861e-07
2.41448e-06
1.80311e-07
4.19462e-07
2.72487e-06
4.09196e-07
3.99566e-07
3.90637e-07
3.85427e-07
3.89823e-07
4.0331e-07
3.91726e-07
3.76408e-07
3.71955e-07
3.84984e-07
4.03071e-07
4.20219e-07
4.29421e-07
4.3396e-07
4.3339e-07
4.4707e-07
4.66602e-07
4.9292e-07
2.80096e-06
5.15601e-07
5.28456e-07
5.38518e-07
5.42854e-07
5.43803e-07
2.80737e-06
4.94635e-07
4.60184e-07
4.32276e-07
3.99564e-07
3.54769e-07
3.18335e-07
2.71621e-07
2.35768e-07
2.09276e-07
1.7847e-07
1.50971e-07
1.29562e-07
1.11364e-07
9.84985e-08
8.79028e-08
7.36348e-08
6.24537e-08
1.23433e-06
1.13555e-06
1.74006e-06
2.84979e-06
3.59401e-06
3.99175e-06
4.42667e-06
4.06075e-06
1.98335e-06
7.42174e-07
1.15229e-06
1.31056e-06
2.27682e-06
3.07302e-06
3.24629e-06
2.98952e-06
2.63574e-06
5.03648e-06
1.91674e-06
1.60299e-06
1.32064e-06
1.12006e-06
1.00019e-06
9.11517e-07
8.42151e-07
4.35599e-06
7.63168e-07
7.30358e-07
6.93359e-07
6.77212e-07
6.80722e-07
7.13699e-07
7.29032e-07
7.4257e-07
7.66598e-07
6.49527e-07
6.61201e-07
2.85377e-06
6.44111e-07
6.09759e-07
6.21655e-07
6.71579e-07
3.19114e-06
8.70636e-07
3.23466e-07
5.31595e-07
3.04422e-06
5.13219e-07
5.14444e-07
5.16395e-07
5.17599e-07
5.00705e-07
4.82575e-07
4.67585e-07
4.46528e-07
4.2632e-07
4.1579e-07
4.04633e-07
3.9345e-07
3.73403e-07
3.57475e-07
3.50788e-07
3.49707e-07
3.55878e-07
2.91014e-06
3.30893e-07
3.32619e-07
3.46637e-07
3.63248e-07
3.79217e-07
3.89991e-07
3.94238e-07
3.98595e-07
4.18054e-07
4.3739e-07
4.65234e-07
4.81548e-07
4.91435e-07
5.0483e-07
5.14921e-07
5.23267e-07
5.2412e-07
4.99595e-07
4.6792e-07
4.36595e-07
4.0371e-07
3.76662e-07
3.28587e-06
2.99676e-07
2.57e-07
2.243e-07
1.9757e-07
1.69594e-07
1.43835e-07
1.23433e-07
1.0668e-07
9.4291e-08
8.42188e-08
7.08e-08
6.02861e-08
1.23444e-06
1.16733e-06
1.26702e-06
1.93226e-06
2.36893e-06
2.25797e-06
2.79691e-06
4.16233e-06
3.84939e-06
1.58178e-06
6.73672e-07
6.77479e-07
1.22598e-06
5.9358e-06
2.47716e-06
3.46103e-06
3.54527e-06
1.82303e-06
5.49288e-06
1.21451e-06
7.53063e-06
9.37017e-07
8.2747e-07
7.08922e-07
6.97439e-06
6.82599e-06
6.77805e-07
5.07849e-06
6.84858e-07
6.84607e-07
7.22834e-07
8.33819e-07
3.78629e-06
8.24822e-07
8.14668e-07
8.22461e-07
2.8972e-06
6.20515e-07
6.08801e-07
2.75347e-06
7.12551e-07
3.06374e-06
8.35433e-07
6.03621e-07
5.01659e-07
4.96393e-07
4.7285e-07
4.61259e-07
4.67744e-07
4.77324e-07
2.88612e-06
4.67794e-07
4.53287e-07
2.96755e-06
2.9113e-06
4.02391e-07
3.82361e-07
3.69703e-07
2.62909e-06
3.41586e-07
3.18045e-07
3.0757e-07
3.03333e-07
3.05952e-07
3.01043e-07
2.90283e-07
2.93046e-07
3.07359e-07
3.2519e-07
3.44063e-07
3.15638e-06
3.61724e-07
3.6645e-07
3.8366e-07
4.07821e-07
4.34877e-07
4.5092e-07
4.66594e-07
4.81182e-07
4.89973e-07
2.87577e-06
2.89242e-06
4.73059e-07
4.41062e-07
4.12165e-07
3.78971e-07
3.52128e-07
3.16982e-07
2.81266e-07
2.42507e-07
2.13016e-07
1.86925e-07
1.60857e-07
1.36783e-07
1.17478e-07
1.01967e-07
9.005e-08
8.01554e-08
6.77887e-08
5.81793e-08
1.22644e-06
1.13526e-06
1.06019e-06
1.15552e-06
1.13846e-06
9.60246e-07
1.27917e-06
2.5575e-06
3.91016e-06
2.83834e-06
9.72425e-07
3.07261e-07
7.09444e-07
1.2151e-06
1.61596e-06
1.65582e-06
1.44669e-06
1.27225e-06
1.0231e-06
9.38769e-07
7.91162e-07
6.76483e-07
6.30668e-06
6.14222e-07
6.23906e-07
5.36609e-06
7.46291e-07
3.4433e-06
7.7082e-07
7.0175e-07
5.78278e-07
5.87983e-07
6.54491e-07
7.62109e-07
8.82691e-07
9.36345e-07
9.3711e-07
7.10591e-07
7.23018e-07
7.76859e-07
8.77017e-07
7.41242e-07
5.73406e-07
4.75913e-07
4.40567e-07
2.64937e-06
4.02823e-07
3.90977e-07
4.03434e-07
4.21906e-07
2.77232e-06
4.08205e-07
3.98043e-07
3.96904e-07
3.79432e-07
3.57103e-07
3.41794e-07
3.25186e-07
3.13528e-07
2.72304e-06
2.72536e-07
2.63955e-07
2.60492e-07
2.63185e-07
2.60802e-07
2.57736e-07
2.61479e-07
2.76516e-07
2.93694e-07
3.08314e-07
3.21022e-07
3.27453e-07
3.36414e-07
3.54801e-07
3.75254e-07
4.04253e-07
4.22417e-07
4.37563e-07
4.52883e-07
4.62816e-07
4.74676e-07
2.93555e-06
4.45325e-07
4.15953e-07
3.86165e-07
3.57232e-07
3.29689e-07
2.96895e-07
2.66067e-07
2.29151e-07
2.01203e-07
1.76912e-07
1.51881e-07
1.29951e-07
1.11692e-07
9.72055e-08
8.595e-08
7.61808e-08
6.47378e-08
5.58691e-08
1.20955e-06
1.06928e-06
9.06997e-07
7.55078e-07
5.80388e-07
4.03337e-07
5.52455e-07
1.36391e-06
2.81536e-06
3.26861e-06
1.68578e-06
6.46172e-07
4.68138e-07
6.99057e-07
8.78191e-07
9.91848e-07
6.73847e-06
6.69905e-06
7.7273e-07
6.37016e-06
5.46055e-07
5.07074e-07
5.11351e-07
5.52209e-07
6.05109e-07
7.94365e-07
2.14549e-06
5.48113e-07
1.79077e-06
3.14331e-07
2.69416e-07
3.6192e-07
1.81371e-06
4.83116e-07
6.60932e-07
8.32643e-07
9.26669e-07
2.92602e-06
8.75659e-07
3.06093e-06
6.96818e-07
5.56959e-07
4.40494e-07
2.51698e-06
3.58434e-07
3.33144e-07
2.83435e-06
3.10318e-07
2.88144e-06
3.4914e-07
2.821e-06
3.35751e-07
3.31958e-07
3.33592e-07
2.73227e-06
3.04029e-07
2.87681e-07
2.72238e-07
2.59624e-07
2.46738e-07
2.31275e-07
2.26287e-07
2.25264e-07
3.04218e-06
2.26174e-07
2.27652e-07
2.32362e-07
2.45845e-07
2.63014e-07
2.78561e-07
2.92868e-07
2.99327e-07
3.06974e-07
3.24733e-07
3.48125e-07
3.71544e-07
3.90756e-07
4.10536e-07
4.24498e-07
4.3329e-07
4.43384e-07
4.46993e-07
2.99643e-06
3.85707e-07
3.62503e-07
3.31949e-07
3.10017e-07
2.77873e-07
2.50758e-07
2.176e-07
1.89877e-07
1.67598e-07
1.43529e-07
1.23323e-07
1.0609e-07
9.24618e-08
8.18935e-08
7.23682e-08
6.18508e-08
5.34829e-08
1.17918e-06
9.47612e-07
6.63182e-07
4.58191e-07
2.59868e-07
1.50226e-07
2.55747e-07
7.74727e-07
1.89464e-06
2.83564e-06
2.23221e-06
9.41546e-07
4.99508e-07
5.70627e-07
5.95098e-07
5.33328e-06
6.24717e-07
5.52486e-07
5.70516e-06
4.52994e-07
4.11987e-07
3.51687e-07
3.77908e-07
2.04251e-06
3.65208e-07
1.73996e-07
1.64223e-07
3.2823e-07
1.95138e-06
2.27241e-07
1.46614e-07
1.69983e-07
2.45646e-07
3.52899e-07
5.30688e-07
1.94569e-06
6.88179e-07
7.31213e-07
6.81431e-07
2.97325e-06
5.11604e-07
2.41778e-06
3.45403e-07
2.66414e-06
2.79264e-06
2.37132e-07
2.32405e-07
2.37436e-07
2.52091e-07
2.93865e-06
2.66347e-07
2.60031e-07
2.62472e-07
2.66311e-07
2.59922e-07
2.46665e-07
2.34332e-07
2.23571e-07
2.13903e-07
2.05687e-07
1.98068e-07
1.94937e-07
1.94719e-07
1.9923e-07
1.97758e-07