/*--------------------------------*- C++ -*----------------------------------*\
  =========                 |
  \\      /  F ield         | OpenFOAM: The Open Source CFD Toolbox
   \\    /   O peration     | Website:  https://openfoam.org
    \\  /    A nd           | Version:  6
     \\/     M anipulation  |
\*---------------------------------------------------------------------------*/
FoamFile
{
    version     2.0;
    format      ascii;
    class       volScalarField;
    location    "0.1";
    object      HO2;
}
// * * * * * * * * * * * * * * * * * * * * * * * * * * * * * * * * * * * * * //

dimensions      [0 0 0 0 0 0 0];

internalField   nonuniform List<scalar> 
8000
(
2.66917e-07
8.56257e-06
3.31639e-05
7.76428e-05
0.000107778
8.42737e-05
5.0571e-05
2.62835e-05
1.1206e-05
3.42056e-06
9.56302e-07
6.40139e-07
1.65343e-06
1.33776e-05
1.26242e-05
1.37821e-05
4.25582e-05
0.000184089
3.88325e-05
4.39637e-05
4.67585e-05
4.09691e-05
3.12538e-05
4.4614e-05
7.37989e-05
9.78743e-05
0.000106279
0.000101357
9.96937e-05
0.00045653
0.000191819
5.67391e-05
3.95074e-05
3.08482e-05
2.8899e-05
2.92415e-05
2.98435e-05
3.02357e-05
3.24064e-05
3.66987e-05
3.10303e-05
2.71635e-05
2.55761e-05
2.653e-05
3.11675e-05
4.12442e-05
5.57146e-05
7.16297e-05
9.15605e-05
0.000651581
0.000210221
0.000148316
0.000128834
0.000127865
0.000127363
0.000127326
0.000127113
0.000126271
0.000125258
0.000124321
9.66476e-05
9.25742e-05
5.59198e-05
6.05631e-05
4.75813e-05
2.50436e-05
4.04011e-05
2.98307e-05
2.98169e-05
2.95757e-05
3.89117e-05
2.84325e-05
2.85744e-05
3.71379e-05
3.73704e-05
2.88405e-05
2.88151e-05
2.91384e-05
2.95835e-05
2.98126e-05
2.95693e-05
2.95404e-05
2.88769e-05
3.66439e-05
3.35145e-05
2.96371e-05
2.61237e-05
2.37629e-05
4.66065e-05
1.89531e-05
1.68595e-05
1.56025e-05
1.49857e-05
1.45269e-05
1.42945e-05
1.44144e-05
1.45544e-05
1.46869e-05
1.44096e-05
1.53809e-05
2.49835e-07
9.72857e-06
3.55086e-05
8.12316e-05
0.000124929
8.43161e-05
4.85117e-05
2.53665e-05
1.04184e-05
2.94677e-06
8.30164e-07
7.52327e-07
2.98614e-06
2.93888e-05
2.8185e-05
1.89858e-05
3.27507e-05
3.87986e-05
4.10191e-05
4.17605e-05
4.47904e-05
3.95608e-05
3.14982e-05
4.69548e-05
7.62178e-05
0.00010311
0.000107116
0.000101533
9.47827e-05
0.000106433
6.53991e-05
5.04711e-05
3.77735e-05
3.10744e-05
2.98808e-05
3.0273e-05
3.07753e-05
3.12357e-05
3.41405e-05
0.000117263
3.43053e-05
2.83408e-05
2.65298e-05
2.76566e-05
3.25564e-05
4.28977e-05
5.69403e-05
7.20589e-05
9.11218e-05
0.000100044
0.000128587
0.000129173
0.000128817
0.000128008
0.000127401
0.000127165
0.000126772
0.000125925
0.000124928
0.000124203
9.66028e-05
9.19104e-05
5.50904e-05
6.43652e-05
3.68305e-05
2.50145e-05
4.03095e-05
2.97884e-05
2.97727e-05
2.95169e-05
2.9341e-05
2.83413e-05
2.85432e-05
3.70187e-05
3.72725e-05
2.88157e-05
2.87705e-05
2.91051e-05
2.9553e-05
2.98003e-05
2.95381e-05
2.95238e-05
2.88327e-05
3.65793e-05
3.35242e-05
2.95945e-05
2.60874e-05
2.37389e-05
2.2009e-05
1.89318e-05
1.68551e-05
1.56006e-05
1.4987e-05
1.45305e-05
1.43012e-05
1.44212e-05
1.45618e-05
1.46953e-05
1.44106e-05
1.53903e-05
3.41445e-07
1.55556e-05
5.78706e-05
8.88033e-05
8.77691e-05
6.45054e-05
3.77704e-05
4.91595e-05
4.48116e-05
3.19218e-06
1.70576e-05
8.52541e-07
4.90238e-06
4.06053e-05
4.21331e-05
3.52126e-05
2.50324e-05
3.21108e-05
3.6992e-05
7.30109e-05
3.82452e-05
3.64712e-05
3.24057e-05
5.19579e-05
8.06094e-05
0.000116268
0.000113007
0.00010195
8.95166e-05
7.46221e-05
5.88767e-05
4.6171e-05
3.67672e-05
3.22279e-05
3.2919e-05
3.43821e-05
3.39886e-05
3.4347e-05
3.47652e-05
3.5698e-05
3.20566e-05
2.94675e-05
2.83907e-05
2.99777e-05
3.54402e-05
4.63841e-05
5.96379e-05
7.56232e-05
9.06217e-05
9.93346e-05
9.95529e-05
0.000129351
0.000129484
0.000128329
0.000127309
0.000126669
0.000126086
0.000125208
0.000124272
0.000110857
9.6397e-05
9.02186e-05
5.32999e-05
5.82192e-05
3.70661e-05
2.4949e-05
2.9665e-05
2.96954e-05
2.96739e-05
2.93888e-05
2.91201e-05
2.81688e-05
5.92241e-05
3.6754e-05
3.70612e-05
5.07851e-05
2.86724e-05
2.90319e-05
2.94825e-05
3.58032e-05
2.94687e-05
2.94879e-05
2.87325e-05
3.64477e-05
5.63908e-05
2.94994e-05
2.60109e-05
2.36881e-05
2.17241e-05
1.88927e-05
1.68458e-05
1.55964e-05
5.92347e-05
6.25029e-05
1.4316e-05
1.44362e-05
1.4578e-05
1.47138e-05
8.6801e-05
1.5411e-05
6.70645e-07
2.39777e-05
5.8459e-05
7.37473e-05
6.31353e-05
4.52286e-05
2.58422e-05
1.28181e-05
4.38194e-06
9.97802e-07
3.2008e-07
4.15098e-07
2.34613e-06
0.00014661
0.000203222
4.10323e-05
2.00464e-05
2.38434e-05
4.2735e-05
4.05868e-05
4.19799e-05
3.5419e-05
3.46914e-05
5.63872e-05
8.49713e-05
0.000220638
0.000123177
0.000102322
8.63247e-05
6.97258e-05
5.64554e-05
4.50557e-05
3.76804e-05
3.43941e-05
3.76167e-05
0.000112827
4.02341e-05
9.78217e-05
3.89975e-05
3.74778e-05
3.44556e-05
3.26887e-05
3.15667e-05
3.33706e-05
3.95111e-05
5.14739e-05
6.57621e-05
7.9649e-05
9.01935e-05
9.13734e-05
9.85177e-05
0.000129484
0.000201492
0.000128114
0.000126604
0.000125716
0.000125135
0.000124381
0.000123636
9.66303e-05
9.57606e-05
6.41614e-05
5.06748e-05
5.19816e-05
3.71815e-05
2.48809e-05
2.94946e-05
2.95562e-05
2.95279e-05
2.91775e-05
4.86819e-05
3.71901e-05
3.72545e-05
3.63404e-05
3.67486e-05
2.84206e-05
2.8522e-05
2.89222e-05
2.93756e-05
2.95844e-05
2.93603e-05
2.94353e-05
2.85724e-05
3.62742e-05
3.29854e-05
2.93498e-05
2.58966e-05
2.36136e-05
2.15101e-05
1.88398e-05
1.68319e-05
1.55904e-05
1.49612e-05
1.45303e-05
1.43382e-05
1.4459e-05
1.46025e-05
1.47418e-05
1.46148e-05
1.54432e-05
5.20409e-07
3.88044e-05
0.000206222
8.57386e-05
5.18928e-05
3.22876e-05
1.58586e-05
5.75731e-06
1.504e-06
3.17601e-07
7.61718e-06
6.06125e-06
6.82957e-06
3.62744e-05
3.86921e-05
2.66143e-05
1.39158e-05
2.02908e-05
4.10646e-05
4.49012e-05
4.20941e-05
3.39936e-05
4.07406e-05
6.63332e-05
9.10732e-05
0.00011662
0.000112277
0.000101649
8.39827e-05
7.05688e-05
5.76587e-05
4.71424e-05
4.07734e-05
3.72974e-05
3.74617e-05
3.8118e-05
3.77239e-05
3.90369e-05
4.14433e-05
0.000126544
3.92969e-05
3.78278e-05
3.62439e-05
3.75704e-05
4.50333e-05
5.75325e-05
6.88662e-05
7.84688e-05
8.95684e-05
9.70316e-05
9.7323e-05
0.000127589
0.000145974
0.000126312
0.00012512
0.000124449
0.000124288
0.000123702
0.000110407
9.6747e-05
9.41655e-05
6.07931e-05
4.69584e-05
4.174e-05
3.16631e-05
3.97882e-05
2.92982e-05
2.93543e-05
3.5571e-05
2.89114e-05
2.85934e-05
3.65653e-05
3.63111e-05
3.5817e-05
3.63485e-05
2.8065e-05
2.83253e-05
2.87767e-05
2.92149e-05
2.938e-05
2.9219e-05
4.57481e-05
2.83459e-05
6.18626e-05
3.25596e-05
2.9158e-05
2.57456e-05
2.35176e-05
2.12895e-05
1.8775e-05
1.68139e-05
1.55832e-05
1.49486e-05
1.45364e-05
1.4367e-05
1.4489e-05
1.46353e-05
1.47786e-05
1.4785e-05
1.5484e-05
2.77231e-07
9.38791e-05
0.000104843
5.88738e-05
3.52461e-05
2.06192e-05
8.1758e-06
3.1573e-05
5.67951e-07
1.60984e-07
1.21503e-07
2.08893e-07
6.01803e-07
2.02554e-05
2.40737e-05
3.32084e-05
4.78901e-05
4.48615e-05
7.359e-05
4.53316e-05
3.94324e-05
3.35752e-05
0.000119083
0.000141486
9.43302e-05
0.000110189
0.000106603
0.000101552
8.86215e-05
7.33102e-05
6.16059e-05
5.2059e-05
4.48266e-05
4.21952e-05
4.06309e-05
3.97681e-05
3.96331e-05
4.08798e-05
4.32099e-05
4.37163e-05
4.18564e-05
4.4493e-05
9.96772e-05
4.32208e-05
5.10836e-05
6.5879e-05
7.93752e-05
8.09384e-05
8.83165e-05
0.000220077
9.57914e-05
0.000125097
0.000206003
0.000124492
0.000123432
0.000123167
0.000123764
0.000123562
9.6608e-05
9.60363e-05
9.06543e-05
5.62372e-05
4.25424e-05
4.14593e-05
3.17534e-05
3.93177e-05
2.90705e-05
2.90428e-05
2.90181e-05
2.8592e-05
2.82217e-05
3.5821e-05
3.54205e-05
3.52104e-05
3.58722e-05
2.77038e-05
2.80668e-05
2.85948e-05
2.90209e-05
2.91683e-05
2.9048e-05
4.76833e-05
3.74266e-05
3.52759e-05
3.21948e-05
2.89282e-05
2.55597e-05
2.34032e-05
2.10814e-05
1.87e-05
1.67919e-05
1.55749e-05
1.49452e-05
6.62206e-05
1.44021e-05
1.45248e-05
1.46758e-05
1.48239e-05
1.49251e-05
1.55322e-05
1.12297e-07
3.00162e-05
4.82437e-05
6.05538e-05
2.03839e-05
1.10966e-05
3.85372e-05
3.23057e-05
1.07201e-05
1.83016e-07
1.80716e-07
4.32225e-07
9.77936e-06
8.85974e-06
1.18415e-05
1.10234e-05
1.76293e-05
2.84647e-05
4.07881e-05
4.48724e-05
0.000116538
3.64029e-05
5.59311e-05
7.89172e-05
9.52964e-05
0.000221057
0.000220191
0.000101975
0.000209278
7.98678e-05
6.79328e-05
5.81023e-05
5.26958e-05
4.81455e-05
4.56781e-05
4.3953e-05
4.45042e-05
4.36905e-05
4.55974e-05
4.98801e-05
0.000107263
4.54223e-05
4.39857e-05
4.73385e-05
5.60208e-05
6.88686e-05
0.000222619
8.35632e-05
8.64235e-05
8.60844e-05
9.36657e-05
0.000101806
0.000208879
0.00012257
0.000121931
0.000122231
0.000123543
0.000214988
9.63169e-05
9.41035e-05
8.37193e-05
5.06024e-05
5.91545e-05
4.57649e-05
1.52642e-05
2.87085e-05
2.8745e-05
2.867e-05
2.86152e-05
2.82306e-05
2.78082e-05
3.49874e-05
3.45436e-05
3.45267e-05
3.53346e-05
3.61709e-05
2.77626e-05
2.83791e-05
2.88014e-05
4.56126e-05
2.88462e-05
2.88139e-05
3.67463e-05
3.45415e-05
3.18648e-05
2.86635e-05
2.53411e-05
4.60141e-05
2.088e-05
1.86122e-05
1.67665e-05
1.55664e-05
1.49472e-05
1.45606e-05
1.4443e-05
1.45672e-05
1.47242e-05
1.48776e-05
1.5048e-05
1.55869e-05
3.65504e-06
3.88189e-05
6.00743e-05
1.98801e-05
9.25188e-06
4.03789e-06
3.13004e-05
1.03354e-06
2.77604e-07
2.40698e-07
5.89231e-06
1.05847e-05
4.91491e-06
2.45455e-05
9.43879e-06
1.30026e-05
2.33469e-05
3.56216e-05
4.3606e-05
4.24344e-05
3.28481e-05
0.000101406
6.68033e-05
0.000159636
0.000104041
0.000109597
0.000105514
0.000102279
9.49e-05
8.28056e-05
0.000185241
6.72164e-05
6.16657e-05
5.70592e-05
5.4024e-05
0.000113451
5.07241e-05
5.03632e-05
5.11142e-05
5.16916e-05
4.87751e-05
4.63256e-05
4.69292e-05
5.18032e-05
5.96932e-05
6.92904e-05
7.67096e-05
7.83999e-05
8.43003e-05
8.34669e-05
9.17313e-05
9.28792e-05
0.000212427
0.000109009
0.000108985
0.000109634
0.000110773
9.69655e-05
9.50077e-05
6.72534e-05
5.60661e-05
9.22084e-05
3.59792e-05
3.60972e-05
2.41238e-05
2.83392e-05
2.83367e-05
2.82006e-05
2.81708e-05
5.58794e-05
6.11204e-05
3.40708e-05
3.36464e-05
3.37736e-05
6.08451e-05
3.54058e-05
3.6425e-05
2.81218e-05
2.85596e-05
4.77791e-05
2.86174e-05
2.8492e-05
3.60012e-05
3.38506e-05
5.30713e-05
2.83683e-05
2.50922e-05
2.29985e-05
2.06797e-05
1.85183e-05
1.67346e-05
1.55573e-05
1.49553e-05
1.4577e-05
1.44896e-05
1.46161e-05
1.47802e-05
1.49394e-05
1.51603e-05
1.56477e-05
1.60583e-08
5.71637e-06
4.26562e-05
3.65114e-05
2.92812e-06
1.01227e-06
6.9241e-07
3.10563e-07
2.75977e-07
5.45591e-07
8.84888e-06
2.0269e-05
5.31083e-05
1.93461e-05
4.55557e-05
4.65741e-05
7.8674e-05
4.23401e-05
0.000120796
3.84533e-05
3.1704e-05
3.94003e-05
6.02429e-05
8.21711e-05
0.00022
0.000224633
0.000105182
0.00010198
0.000219051
8.8208e-05
8.09954e-05
7.70772e-05
7.57388e-05
7.21174e-05
6.71745e-05
6.21379e-05
0.000143688
5.8198e-05
5.97537e-05
0.000142662
5.25959e-05
5.00912e-05
5.18222e-05
5.6693e-05
6.29295e-05
6.95303e-05
7.85803e-05
7.69858e-05
8.22781e-05
8.12926e-05
8.1167e-05
9.16706e-05
9.34508e-05
9.47531e-05
0.000216883
9.62046e-05
9.73294e-05
9.58104e-05
9.12343e-05
6.15783e-05
0.000110208
8.16583e-05
4.10472e-05
1.49543e-05
3.76928e-05
2.79534e-05
2.78581e-05
2.75945e-05
4.94256e-05
2.71235e-05
3.47495e-05
3.30698e-05
3.27253e-05
3.29658e-05
3.38449e-05
3.46131e-05
3.57086e-05
2.77922e-05
5.09367e-05
2.83452e-05
5.49867e-05
5.85777e-05
3.52203e-05
3.31667e-05
5.27064e-05
2.80202e-05
2.48163e-05
2.27179e-05
2.04786e-05
1.84265e-05
1.66986e-05
1.55482e-05
1.49499e-05
1.46073e-05
1.45413e-05
1.46713e-05
1.48436e-05
1.50127e-05
1.52659e-05
1.57141e-05
1.23307e-09
1.20362e-06
4.0216e-06
2.48607e-05
6.61826e-07
2.58401e-07
7.38582e-06
2.5886e-07
5.45174e-06
1.16891e-05
3.73955e-06
3.64019e-05
3.98572e-05
0.000115826
3.28002e-05
3.37885e-05
4.06011e-05
4.43631e-05
0.000133461
0.000101292
7.7014e-05
4.31302e-05
6.04547e-05
8.05484e-05
9.82017e-05
0.000223818
0.000103995
0.000101241
9.94036e-05
9.2817e-05
9.0269e-05
8.89763e-05
9.87404e-05
0.000210424
0.000196334
8.01315e-05
7.43618e-05
7.0067e-05
6.79057e-05
6.51341e-05
5.82571e-05
5.6117e-05
5.7768e-05
6.18374e-05
6.71599e-05
7.21825e-05
7.78424e-05
7.54037e-05
8.04332e-05
7.94788e-05
7.92425e-05
7.92978e-05
9.28492e-05
9.45764e-05
9.53538e-05
9.59873e-05
0.000219513
0.000211279
6.36384e-05
5.49412e-05
4.47392e-05
4.93731e-05
3.52074e-05
2.36782e-05
2.30096e-05
3.27778e-05
2.72552e-05
2.6943e-05
5.68281e-05
3.45617e-05
3.32678e-05
3.20306e-05
3.1789e-05
3.21192e-05
3.29194e-05
3.37954e-05
6.19411e-05
5.97428e-05
2.79392e-05
2.79584e-05
2.79132e-05
3.67292e-05
3.44128e-05
3.24723e-05
3.02879e-05
2.69131e-05
2.4517e-05
2.24347e-05
2.0276e-05
1.83295e-05
1.66607e-05
1.55463e-05
1.49502e-05
1.46405e-05
1.45966e-05
1.47326e-05
1.49143e-05
1.50933e-05
1.53684e-05
1.57857e-05
6.27623e-11
5.14792e-06
1.2808e-05
1.02841e-05
2.22121e-07
1.828e-07
2.84996e-07
5.57278e-06
8.17975e-06
1.44757e-05
3.10629e-05
7.13995e-05
0.000123082
9.62912e-05
4.20035e-05
4.15824e-05
0.000131306
4.28353e-05
3.51355e-05
3.22534e-05
3.60774e-05
4.81184e-05
6.54609e-05
8.04279e-05
9.21296e-05
0.000104807
0.000103005
0.000100538
9.88531e-05
9.80681e-05
9.65244e-05
9.56168e-05
9.9994e-05
9.80565e-05
9.49975e-05
0.000211345
9.14147e-05
0.000207052
8.25804e-05
0.000195087
6.73905e-05
6.52592e-05
6.61755e-05
6.77097e-05
7.15219e-05
7.46737e-05
7.69649e-05
7.38306e-05
0.000226716
7.78878e-05
7.7482e-05
7.7265e-05
7.69809e-05
9.43015e-05
0.000220693
9.40874e-05
0.000208929
6.41516e-05
5.67467e-05
4.80013e-05
5.87846e-05
2.63959e-05
3.01671e-05
3.64168e-05
2.69252e-05
2.67787e-05
2.66003e-05
2.61811e-05
3.42319e-05
6.02148e-05
3.19037e-05
3.09908e-05
3.08511e-05
3.1257e-05
3.20112e-05
3.29506e-05
3.40891e-05
3.55213e-05
2.75249e-05
5.94753e-05
3.64458e-05
3.56595e-05
3.35938e-05
3.1773e-05
2.9559e-05
2.65194e-05
2.41996e-05
2.21449e-05
2.00803e-05
5.00282e-05
1.66219e-05
1.55504e-05
1.49608e-05
1.46781e-05
1.46602e-05
1.48031e-05
1.49908e-05
1.51815e-05
1.54795e-05
1.58653e-05
6.33273e-07
4.46134e-06
7.35509e-06
7.98458e-06
4.61929e-07
6.61373e-06
1.32782e-06
1.21394e-05
1.82334e-05
2.45862e-05
4.29637e-05
2.95231e-05
3.96604e-05
8.99179e-05
4.00916e-05
4.31634e-05
4.47497e-05
4.10882e-05
3.10681e-05
8.35335e-05
4.04416e-05
5.41665e-05
0.000136987
8.21773e-05
9.06e-05
0.000224257
0.000225848
9.97587e-05
0.000103069
0.000223556
0.000101366
0.000100465
9.99413e-05
9.86752e-05
9.6923e-05
0.000101652
9.71583e-05
9.85232e-05
0.000211053
8.29058e-05
7.75997e-05
7.26533e-05
7.2287e-05
7.53012e-05
7.75959e-05
7.68513e-05
7.1677e-05
7.24543e-05
7.24791e-05
7.61634e-05
0.000223019
0.000221834
0.000220875
7.31182e-05
7.02248e-05
6.72672e-05
6.2636e-05
5.69643e-05
4.94136e-05
6.20622e-05
4.04168e-05
1.39337e-05
2.30605e-05
2.65301e-05
2.64638e-05
2.60715e-05
5.68139e-05
6.06946e-05
3.24447e-05
3.1646e-05
3.06417e-05
2.99586e-05
2.99122e-05
3.03797e-05
3.1131e-05
3.20902e-05
3.31886e-05
3.45046e-05
3.59523e-05
3.57059e-05
3.54537e-05
3.46758e-05
3.27733e-05
3.10647e-05
2.88788e-05
2.61077e-05
2.38686e-05
2.18533e-05
1.98909e-05
1.8056e-05
1.65945e-05
5.99983e-05
1.49859e-05
1.47206e-05
1.47341e-05
1.48827e-05
1.50733e-05
1.52759e-05
1.5584e-05
1.59517e-05
6.75706e-07
2.67459e-08
1.53649e-07
8.04217e-07
2.78248e-06
1.39138e-05
7.52235e-06
2.81129e-05
1.8117e-05
2.46636e-05
2.86297e-05
3.66086e-05
3.97006e-05
3.96996e-05
3.97454e-05
4.34756e-05
4.46726e-05
3.90728e-05
2.9711e-05
3.38673e-05
4.50554e-05
6.34189e-05
0.000171128
8.36579e-05
8.94082e-05
0.000218819
9.94214e-05
9.78025e-05
0.000225976
0.000105792
0.000225283
0.000106941
0.000110905
0.000109398
0.000102835
0.000101448
0.000104563
0.000103097
9.4227e-05
8.84313e-05
0.000217743
0.000214868
7.98526e-05
7.60512e-05
0.000224716
7.61894e-05
7.01682e-05
0.000223275
6.89461e-05
7.36682e-05
0.000216996
7.03664e-05
6.85357e-05
6.67903e-05
0.000195711
0.000172331
5.53097e-05
9.89807e-05
6.70288e-05
4.63058e-05
3.41937e-05
1.62131e-05
2.33166e-05
2.61533e-05
4.22562e-05
2.53202e-05
6.01034e-05
3.1292e-05
3.08538e-05
3.02103e-05
2.94514e-05
2.89511e-05
2.89859e-05
2.94964e-05
3.02642e-05
3.12329e-05
3.22868e-05
3.35052e-05
6.13592e-05
3.4665e-05
3.44728e-05
5.96881e-05
3.19569e-05
3.03541e-05
2.82187e-05
2.56919e-05
2.35364e-05
2.15656e-05
1.97063e-05
1.79032e-05
5.52575e-05
1.55408e-05
1.50186e-05
1.47714e-05
1.48125e-05
1.49683e-05
1.51636e-05
1.53764e-05
1.56896e-05
1.60428e-05
9.96935e-08
3.4562e-06
9.32759e-07
1.90602e-05
6.3298e-05
2.44215e-05
2.77968e-05
7.97735e-05
0.000106736
0.000144447
4.16477e-05
0.000152178
3.97775e-05
5.01816e-05
0.000136607
4.35369e-05
4.30489e-05
0.000118297
6.42387e-05
8.81447e-05
4.96725e-05
0.000132657
8.74201e-05
8.5989e-05
8.72219e-05
9.10319e-05
9.4155e-05
9.64372e-05
9.53126e-05
9.86732e-05
9.90216e-05
0.000104779
0.000109349
0.000223896
0.000106231
0.0001047
0.000103796
0.000102616
0.000222432
8.77058e-05
8.51869e-05
7.96514e-05
7.73793e-05
7.76963e-05
0.000226094
7.51557e-05
7.35223e-05
7.259e-05
6.47353e-05
6.60145e-05
6.54739e-05
6.55356e-05
5.89563e-05
0.000172121
0.000166416
5.23311e-05
4.8098e-05
9.82393e-05
4.75111e-05
3.51944e-05
2.24294e-05
2.22179e-05
2.60864e-05
2.56734e-05
2.52063e-05
3.15861e-05
3.07888e-05
2.97425e-05
2.94532e-05
2.89169e-05
2.83511e-05
2.79904e-05
2.809e-05
2.86311e-05
2.94118e-05
3.03797e-05
3.13939e-05
3.25089e-05
3.3947e-05
3.36607e-05
3.35173e-05
3.28205e-05
3.11538e-05
5.29754e-05
2.68727e-05
4.74375e-05
4.7294e-05
2.12728e-05
1.95276e-05
1.77524e-05
1.64894e-05
1.55307e-05
1.50569e-05
1.4842e-05
1.48956e-05
1.506e-05
1.52647e-05
1.54818e-05
1.57968e-05
1.61385e-05
1.31776e-05
7.58185e-06
8.42853e-06
9.15967e-05
5.9849e-05
4.21937e-05
0.000127629
4.38502e-05
0.000129376
4.25534e-05
0.000127657
0.000134427
4.0209e-05
5.77217e-05
0.000101594
4.29933e-05
3.96158e-05
7.96083e-05
2.97024e-05
9.98555e-05
5.64186e-05
7.02667e-05
0.000166615
7.96392e-05
8.4868e-05
8.56575e-05
0.000220746
9.0343e-05
8.9925e-05
9.17025e-05
9.57085e-05
9.5179e-05
0.000224894
9.99098e-05
0.000224394
0.000102937
0.000102253
0.000221857
0.000224341
8.62903e-05
8.40768e-05
8.15993e-05
7.8878e-05
7.60663e-05
7.12169e-05
7.13216e-05
6.957e-05
6.89138e-05
7.214e-05
0.000168689
8.68532e-05
6.55412e-05
6.71271e-05
6.90825e-05
6.96805e-05
0.000111302
6.12979e-05
5.24174e-05
3.61436e-05
1.64982e-05
3.42252e-05
2.51606e-05
2.52038e-05
2.5044e-05
3.16106e-05
3.00266e-05
2.91601e-05
2.83828e-05
5.45269e-05
2.77691e-05
2.65904e-05
2.63457e-05
2.6515e-05
2.77819e-05
2.85912e-05
2.95309e-05
3.05293e-05
3.15249e-05
5.95852e-05
3.2674e-05
3.25697e-05
3.18836e-05
3.03615e-05
2.88911e-05
2.6243e-05
2.47812e-05
2.28272e-05
2.09788e-05
1.9356e-05
1.76153e-05
5.80149e-05
1.55417e-05
1.50955e-05
1.49175e-05
1.4978e-05
1.51581e-05
1.53721e-05
1.55907e-05
1.59062e-05
1.62385e-05
7.73486e-05
0.000100354
4.7288e-05
0.000175628
4.2165e-05
0.000133587
3.74824e-05
8.25593e-05
9.13995e-05
3.67036e-05
3.72212e-05
8.17349e-05
3.8124e-05
3.83255e-05
3.99874e-05
0.000126907
3.5678e-05
3.01096e-05
2.90734e-05
3.89057e-05
9.80198e-05
0.000116738
7.03413e-05
0.000166761
0.000195801
0.000216801
0.00021502
8.04466e-05
7.99737e-05
8.60817e-05
0.00022312
0.00022383
8.66185e-05
8.57842e-05
8.90056e-05
0.00022334
0.000223182
9.70637e-05
9.06591e-05
0.000226702
8.22625e-05
7.94619e-05
0.000227863
7.15597e-05
0.000219572
6.73467e-05
0.000184294
6.57198e-05
7.40394e-05
0.000129227
8.18338e-05
7.42574e-05
6.66635e-05
6.48587e-05
5.909e-05
5.40131e-05
4.20306e-05
2.55775e-05
1.69147e-05
3.39069e-05
2.8403e-05
3.57258e-05
2.44721e-05
3.14739e-05
2.97258e-05
2.83178e-05
2.74661e-05
2.69224e-05
2.60923e-05
2.57879e-05
2.54695e-05
2.5326e-05
2.55293e-05
2.61133e-05
4.9303e-05
2.85431e-05
2.95347e-05
5.45575e-05
3.14972e-05
5.67489e-05
3.14517e-05
3.08334e-05
2.94376e-05
2.79983e-05
2.55232e-05
4.79055e-05
2.23714e-05
2.06282e-05
1.91402e-05
5.54642e-05
1.63377e-05
1.55655e-05
1.51587e-05
1.5013e-05
1.50819e-05
1.52819e-05
1.55057e-05
1.57295e-05
1.60394e-05
1.63631e-05
9.48723e-06
8.14845e-05
7.77126e-05
4.99489e-05
3.63301e-05
3.51776e-05
2.62268e-05
2.77471e-05
2.83169e-05
2.93929e-05
5.60838e-05
5.73747e-05
5.44425e-05
3.71072e-05
7.32745e-05
3.57663e-05
3.15463e-05
6.12522e-05
7.60543e-05
4.09328e-05
4.99377e-05
5.76921e-05
6.30232e-05
7.11927e-05
0.000192572
0.00019604
0.000194674
7.69894e-05
0.000192203
7.4406e-05
7.46533e-05
7.68477e-05
7.68624e-05
7.94535e-05
8.26188e-05
8.08695e-05
8.07637e-05
8.07282e-05
0.000226959
8.18041e-05
0.000228635
0.000228476
0.000227149
7.46253e-05
6.73308e-05
6.33844e-05
7.32217e-05
7.11713e-05
6.37654e-05
5.34049e-05
3.55787e-05
2.89083e-05
2.77642e-05
2.76288e-05
3.02743e-05
2.8584e-05
1.83525e-05
2.38958e-05
2.50442e-05
3.3425e-05
4.09978e-05
5.44192e-05
3.02058e-05
2.93005e-05
2.78897e-05
2.65799e-05
2.52174e-05
2.48175e-05
2.46781e-05
2.45791e-05
2.43457e-05
2.42545e-05
2.44905e-05
2.50652e-05
2.58432e-05
2.74438e-05
2.83627e-05
2.91103e-05
3.00176e-05
3.01625e-05
3.02174e-05
2.96759e-05
2.84314e-05
2.63253e-05
2.47484e-05
2.34652e-05
2.18675e-05
2.02421e-05
1.8845e-05
1.72881e-05
1.62617e-05
1.55767e-05
1.52415e-05
1.51309e-05
1.52191e-05
1.54384e-05
1.56702e-05
1.58925e-05
1.62043e-05
1.65144e-05
7.6311e-06
2.08095e-05
5.45134e-05
5.36077e-05
3.77838e-05
2.40435e-05
1.51584e-05
1.68181e-05
1.95613e-05
2.38524e-05
8.06113e-05
3.48032e-05
3.50741e-05
5.24237e-05
6.10377e-05
6.15735e-05
3.13903e-05
3.26312e-05
0.000108502
4.99989e-05
0.000110534
5.42926e-05
5.9441e-05
6.65073e-05
0.000167867
6.93579e-05
6.76115e-05
6.68341e-05
0.000163187
6.65734e-05
0.000186052
0.00019287
6.85383e-05
7.23212e-05
0.000209379
7.04981e-05
7.38584e-05
7.75224e-05
8.06744e-05
0.000227839
7.45551e-05
7.19781e-05
7.42635e-05
0.000212783
6.36925e-05
7.1408e-05
6.5169e-05
4.41591e-05
3.22102e-05
2.79966e-05
2.76143e-05
2.29845e-05
2.68109e-05
2.33553e-05
2.60263e-05
2.44638e-05
2.51185e-05
3.20438e-05
2.44147e-05
2.38773e-05
2.32921e-05
2.90531e-05
2.80663e-05
2.74141e-05
5.43139e-05
2.45276e-05
2.38343e-05
2.35338e-05
5.08057e-05
4.98716e-05
2.33065e-05
2.32537e-05
2.34955e-05
2.40783e-05
2.48211e-05
2.57227e-05
2.72288e-05
2.79049e-05
2.86531e-05
2.88861e-05
2.896e-05
2.85638e-05
4.97164e-05
2.54026e-05
2.40012e-05
2.27955e-05
2.13893e-05
1.98823e-05
1.85587e-05
5.95522e-05
1.6199e-05
1.56229e-05
1.53335e-05
1.52765e-05
1.53726e-05
1.56138e-05
1.58455e-05
1.60605e-05
1.63774e-05
1.6675e-05
7.29018e-06
1.21008e-05
2.48737e-05
3.39909e-05
2.36987e-05
1.30573e-05
9.26654e-06
9.16776e-06
1.07958e-05
1.68242e-05
3.13823e-05
3.9367e-05
3.75305e-05
3.89628e-05
5.97095e-05
3.59894e-05
3.70092e-05
9.99928e-05
4.26299e-05
4.49381e-05
4.92711e-05
0.000123163
0.000132279
0.000136697
0.000146837
6.23825e-05
6.07408e-05
5.85382e-05
5.54406e-05
5.68607e-05
0.000143461
5.67245e-05
5.91755e-05
0.000175393
6.27573e-05
6.5071e-05
0.000193829
6.99171e-05
7.04887e-05
7.24973e-05
7.32779e-05
0.000216129
6.63896e-05
6.22939e-05
0.00012238
7.0128e-05
4.73007e-05
2.75074e-05
2.68814e-05
2.65946e-05
2.65405e-05
3.47467e-05
3.38504e-05
2.57532e-05
2.53689e-05
2.49375e-05
2.4538e-05
2.40092e-05
2.34137e-05
2.91699e-05
2.80171e-05
5.89625e-05
2.62669e-05
5.52024e-05
2.42285e-05
2.31795e-05
2.25652e-05
2.23531e-05
2.23527e-05
2.23956e-05
4.96336e-05
2.23293e-05
2.25698e-05
2.31451e-05
2.38631e-05
2.47892e-05
2.55103e-05
2.61132e-05
2.74247e-05
5.24316e-05
2.78017e-05
2.75147e-05
2.57909e-05
2.4593e-05
2.33009e-05
2.21674e-05
2.09301e-05
1.9543e-05
1.82945e-05
1.70121e-05
1.61672e-05
1.56858e-05
1.54576e-05
1.54237e-05
1.55378e-05
1.5798e-05
1.60338e-05
1.62353e-05
1.65548e-05
1.6849e-05
7.09586e-06
8.85414e-06
1.7257e-05
2.35972e-05
2.11265e-05
1.88618e-05
1.61917e-05
1.15417e-05
8.9384e-06
1.21109e-05
2.33011e-05
8.73151e-05
4.24621e-05
9.57517e-05
4.33473e-05
4.44577e-05
4.63613e-05
4.45678e-05
4.38127e-05
4.25711e-05
4.38953e-05
0.000133584
4.61453e-05
5.11544e-05
5.38916e-05
5.50656e-05
5.61521e-05
0.000122882
4.62969e-05
0.000110473
4.55544e-05
4.58528e-05
0.000108383
5.21151e-05
0.000133303
6.01416e-05
6.48859e-05
6.71865e-05
7.08143e-05
6.76506e-05
6.57614e-05
6.30098e-05
6.6166e-05
0.000117414
5.91483e-05
3.20328e-05
3.44931e-05
3.25224e-05
3.2012e-05
3.20937e-05
5.72378e-05
5.59148e-05
5.44807e-05
2.46691e-05
5.5528e-05
2.38475e-05
3.03875e-05
5.97538e-05
2.81588e-05
2.71599e-05
2.61761e-05
2.4954e-05
2.42527e-05
2.37643e-05
2.2826e-05
2.1921e-05
2.1369e-05
2.12343e-05
2.12766e-05
2.13545e-05
2.13972e-05
2.14791e-05
2.16898e-05
2.226e-05
2.29735e-05
2.39012e-05
4.9357e-05
2.50915e-05
2.56217e-05
2.59275e-05
2.60167e-05
2.57994e-05
4.93995e-05
2.37737e-05
2.26499e-05
2.1599e-05
2.05139e-05
1.9219e-05
1.80688e-05
1.69054e-05
1.61606e-05
1.57543e-05
1.55935e-05
1.55735e-05
1.57103e-05
1.59902e-05
1.62217e-05
1.64248e-05
1.67363e-05
1.70304e-05
7.0531e-06
7.69445e-06
1.16311e-05
1.81752e-05
2.03573e-05
2.01012e-05
2.10731e-05
1.97483e-05
1.29634e-05
1.06455e-05
2.05419e-05
3.25765e-05
4.753e-05
5.34665e-05
5.22158e-05
6.03973e-05
6.02716e-05
0.00011714
4.86948e-05
4.21863e-05
3.87446e-05
3.58843e-05
3.7289e-05
4.20195e-05
4.61478e-05
0.000127928
4.63825e-05
4.11675e-05
3.65236e-05
3.56934e-05
3.52155e-05
3.72396e-05
3.99106e-05
4.31551e-05
4.84604e-05
5.56165e-05
6.1145e-05
0.000159013
6.48082e-05
6.48498e-05
6.68883e-05
6.28424e-05
0.00011265
5.69984e-05
3.20804e-05
3.2227e-05
5.37478e-05
2.8695e-05
2.85523e-05
2.89313e-05
2.96049e-05
2.96621e-05
2.96485e-05
2.96888e-05
2.91623e-05
2.84628e-05
2.77998e-05
2.7066e-05
2.62919e-05
2.4987e-05
2.41371e-05
2.34457e-05
2.2835e-05
2.23439e-05
5.85347e-05
2.07049e-05
2.02768e-05
2.02135e-05
2.0286e-05
2.03985e-05
2.04846e-05
2.05875e-05
2.08394e-05
2.14276e-05
2.21313e-05
2.30403e-05
2.36757e-05
2.41756e-05
2.46516e-05
2.48909e-05
2.5044e-05
2.49075e-05
2.40482e-05
2.30352e-05
2.20462e-05
2.10575e-05
2.00952e-05
5.81559e-05
1.78638e-05
1.68312e-05
1.61893e-05
1.58348e-05
1.57401e-05
1.57515e-05
1.59265e-05
1.61939e-05
1.64159e-05
1.66277e-05
1.69278e-05
1.72171e-05
7.10623e-06
7.54071e-06
8.71897e-06
1.21652e-05
1.40197e-05
1.38899e-05
1.63939e-05
2.12165e-05
1.97474e-05
1.26018e-05
1.45578e-05
3.00519e-05
4.32886e-05
0.000155702
5.69062e-05
0.000128661
0.000123819
5.13623e-05
0.000121213
3.84982e-05
0.000122443
2.97878e-05
3.02742e-05
3.47908e-05
0.000134555
0.000135033
3.86407e-05
8.33836e-05
2.88918e-05
2.68158e-05
2.75162e-05
3.28521e-05
6.65088e-05
3.73628e-05
4.30885e-05
5.2108e-05
0.000123437
6.03021e-05
6.09023e-05
0.000140113
6.25785e-05
0.000104768
5.34119e-05
3.41046e-05
2.99633e-05
2.7938e-05
2.58944e-05
2.51589e-05
2.52292e-05
2.57258e-05
5.52605e-05
2.6812e-05
2.6882e-05
5.83456e-05
5.87582e-05
2.62325e-05
2.53003e-05
2.47238e-05
5.71084e-05
2.34751e-05
2.26468e-05
2.19884e-05
2.14205e-05
2.09543e-05
2.03119e-05
1.96119e-05
1.92787e-05
1.92706e-05
1.93876e-05
1.95706e-05
5.4788e-05
1.97979e-05
2.00555e-05
2.06236e-05
2.13415e-05
2.22081e-05
2.28092e-05
2.3321e-05
2.37705e-05
2.39987e-05
5.0754e-05
5.0779e-05
2.32471e-05
2.2347e-05
2.14733e-05
2.0545e-05
1.96882e-05
1.86869e-05
1.76799e-05
1.67787e-05
1.62353e-05
1.59476e-05
1.58956e-05
1.59372e-05
1.61415e-05
1.63937e-05
1.662e-05
1.68426e-05
1.7134e-05
1.73907e-05
7.21047e-06
7.66472e-06
8.07421e-06
9.18247e-06
9.97847e-06
1.05255e-05
1.31848e-05
1.85695e-05
2.23599e-05
1.72814e-05
1.19869e-05
9.93351e-06
3.10289e-05
4.16304e-05
4.79262e-05
5.33306e-05
4.94718e-05
4.09235e-05
3.62685e-05
3.02685e-05
2.54156e-05
2.24048e-05
7.2158e-05
2.71525e-05
3.10778e-05
7.62383e-05
3.46504e-05
5.01964e-05
2.40749e-05
2.05382e-05
1.93219e-05
2.21169e-05
2.50817e-05
2.97435e-05
3.85907e-05
4.76383e-05
5.32078e-05
5.84279e-05
5.93389e-05
5.81532e-05
5.65426e-05
3.62389e-05
3.27895e-05
2.87731e-05
2.56348e-05
4.93335e-05
2.31547e-05
2.27057e-05
2.29616e-05
2.35619e-05
5.4154e-05
2.40641e-05
2.42116e-05
2.44318e-05
2.42662e-05
2.39332e-05
2.35502e-05
2.30574e-05
2.26201e-05
6.14824e-05
2.1153e-05
2.05648e-05
2.01054e-05
1.97263e-05
1.92117e-05
1.87302e-05
1.84718e-05
1.85108e-05
1.86445e-05
1.87924e-05
1.89319e-05
1.90564e-05
1.93481e-05
1.99065e-05
2.05838e-05
2.14212e-05
2.19973e-05
2.25122e-05
2.29483e-05
2.31718e-05
2.33801e-05
5.17344e-05
2.25275e-05
2.1702e-05
2.09126e-05
2.00754e-05
1.92968e-05
1.84363e-05
1.75576e-05
1.6754e-05
1.62948e-05
1.60796e-05
1.60473e-05
1.6135e-05
1.636e-05
1.65982e-05
1.68349e-05
1.70554e-05
1.73428e-05
1.7582e-05
7.35448e-06
7.86043e-06
8.38895e-06
8.77588e-06
9.36928e-06
1.04966e-05
1.33418e-05
1.81342e-05
2.25969e-05
2.1299e-05
1.37881e-05
1.19363e-05
1.85136e-05
2.68191e-05
3.38929e-05
3.71609e-05
0.000121276
9.36197e-05
2.65753e-05
6.56807e-05
1.76681e-05
1.63463e-05
1.77681e-05
2.02863e-05
2.27319e-05
2.55514e-05
3.34022e-05
2.0562e-05
2.71603e-05
1.36129e-05
1.22594e-05
1.52012e-05
2.74583e-05
2.0972e-05
2.98899e-05
4.06178e-05
4.71957e-05
8.30493e-05
4.4324e-05
7.49264e-05
3.39052e-05
3.03295e-05
2.73135e-05
4.81398e-05
2.261e-05
2.14312e-05
5.36828e-05
2.0428e-05
5.52452e-05
2.1609e-05
5.67936e-05
2.2046e-05
2.22706e-05
2.25407e-05
5.94617e-05
2.22058e-05
2.18318e-05
2.13746e-05
2.09273e-05
2.04391e-05
1.97682e-05
1.93169e-05
1.90102e-05
6.91167e-05
1.83163e-05
1.79929e-05
1.78018e-05
1.78482e-05
1.80021e-05
1.81536e-05
1.83043e-05
1.84388e-05
1.87055e-05
1.92364e-05
1.99164e-05
2.06472e-05
2.12177e-05
2.17471e-05
2.2168e-05
2.23923e-05
2.25926e-05
2.25783e-05
5.35618e-05
2.10709e-05
2.04018e-05
1.96118e-05
1.89594e-05
1.81866e-05
1.74682e-05
1.67826e-05
1.63658e-05
1.6236e-05
1.62263e-05
1.63507e-05
1.65734e-05
1.68125e-05
1.70513e-05
1.72818e-05
1.75361e-05
1.77772e-05
7.54159e-06
8.18115e-06
8.76822e-06
9.48635e-06
1.06959e-05
1.25907e-05
1.6393e-05
2.09245e-05
2.42472e-05
2.37311e-05
1.7567e-05
1.14043e-05
1.17585e-05
1.7635e-05
2.23322e-05
6.28551e-05
2.30324e-05
1.97346e-05
5.55751e-05
1.51606e-05
1.27382e-05
1.18589e-05
1.25466e-05
2.26125e-05
1.50875e-05
1.33741e-05
1.22287e-05
1.51458e-05
2.34397e-05
1.06934e-05
8.89935e-06
9.63846e-06
1.15585e-05
1.53915e-05
2.43729e-05
4.32278e-05
3.7977e-05
3.86159e-05
3.56088e-05
5.32735e-05
2.83656e-05
4.6199e-05
2.29999e-05
5.21124e-05
5.56438e-05
1.87211e-05
1.83797e-05
1.84076e-05
1.89152e-05
6.03436e-05
1.99039e-05
2.00244e-05
2.03378e-05
2.06623e-05
2.06759e-05
2.04614e-05
2.01619e-05
1.98217e-05
1.94584e-05
1.91101e-05
1.86484e-05
1.83064e-05
1.81008e-05
1.79592e-05
1.76345e-05