/*--------------------------------*- C++ -*----------------------------------*\
  =========                 |
  \\      /  F ield         | OpenFOAM: The Open Source CFD Toolbox
   \\    /   O peration     | Website:  https://openfoam.org
    \\  /    A nd           | Version:  6
     \\/     M anipulation  |
\*---------------------------------------------------------------------------*/
FoamFile
{
    version     2.0;
    format      ascii;
    class       volScalarField;
    location    "0.1";
    object      k;
}
// * * * * * * * * * * * * * * * * * * * * * * * * * * * * * * * * * * * * * //

dimensions      [0 2 -2 0 0 0 0];

internalField   nonuniform List<scalar> 
8000
(
3.11079
22.1938
67.7086
118.926
140.611
115.4
66.459
33.0053
15.736
7.63126
4.18683
3.11028
3.20054
5.48803
5.22782
4.14652
4.80346
11.6169
7.70781
4.85965
4.45233
5.67738
8.96463
14.3025
20.2629
25.8355
29.2807
31.2591
32.4425
31.487
27.4613
17.9605
12.9104
9.30571
6.81192
5.21783
4.34433
4.00934
3.97123
3.99644
3.9015
3.77533
3.67417
3.61638
3.65261
3.77691
4.00619
4.33932
5.04113
5.60659
6.83283
5.68741
5.20455
5.31337
5.74597
6.47924
7.6982
9.72424
13.0126
17.7594
23.7774
30.3137
36.9182
43.1742
50.3321
56.0573
61.3942
66.4861
71.9462
76.2535
80.7702
84.2321
87.4592
90.2964
93.7296
94.7461
97.0893
98.691
99.6569
99.7419
98.4593
97.8354
97.0652
95.2262
92.1065
87.7992
83.9413
79.8816
75.3865
72.0418
69.4158
67.1003
67.9969
62.3724
57.0503
53.8392
52.2161
53.5289
48.5067
46.2986
3.02139
20.1048
64.2583
111.922
131.606
106.855
60.3999
29.3224
13.928
6.96601
3.99944
3.10102
3.39993
6.88734
7.70086
4.81521
4.79505
7.27621
6.503
5.04998
4.64706
5.8444
9.18194
14.5493
20.3561
25.8132
29.1626
30.9856
31.6271
29.1721
24.0992
17.719
12.9079
9.38786
6.93215
5.34671
4.47151
4.15438
4.17475
4.03415
4.04417
3.94125
3.8217
3.74263
3.7677
3.89581
4.13474
4.44924
5.00016
5.5561
5.99218
5.4615
5.37594
5.61166
6.13641
7.04134
8.50739
10.7652
14.1672
18.8934
24.8424
31.2181
37.7155
43.8564
50.7429
56.5635
61.8503
66.8943
72.3817
76.6077
81.5652
84.5075
87.6133
90.45
93.5336
94.8912
97.2592
98.8905
99.8327
99.8754
98.5702
97.9134
97.1405
95.3317
92.1219
87.8346
83.9666
79.8992
75.5809
72.068
69.4394
67.1212
68.0675
62.3539
57.0464
53.8381
52.2126
53.5291
48.4975
46.2894
2.76412
15.6827
58.2171
93.7173
123.658
95.8976
53.3377
28.4312
13.2564
6.15713
3.60747
3.0572
3.75692
6.0056
12.8384
5.80535
4.32882
5.28355
5.23235
4.15803
4.45723
6.04947
9.6275
15.0854
20.5685
25.714
28.8879
30.5297
30.6007
27.8391
22.89
17.3885
12.8599
9.51363
7.15152
5.59607
4.73783
4.47689
4.55675
4.68378
4.53191
4.32839
4.14368
4.01323
4.01342
4.15358
4.42619
4.75561
5.18254
5.57585
5.75929
5.74265
6.00362
6.40473
7.1198
8.37263
10.2968
12.9384
16.5105
21.2086
27.0463
33.1106
39.4112
45.3138
51.9441
57.651
62.8444
67.7792
73.3309
77.4148
82.5275
85.0291
87.9202
90.7742
93.702
95.206
97.6496
99.3355
100.234
100.15
98.8176
98.0768
97.3003
95.5369
92.1449
87.9143
84.0281
79.9425
75.6978
72.1001
69.4886
67.1692
68.2065
62.3119
57.0386
53.8345
52.2019
53.5205
48.476
46.2659
2.69128
11.5386
53.0745
95.3155
106.341
79.7606
43.1033
21.2553
10.5538
5.56005
3.63504
3.17793
4.28668
6.05912
8.36077
4.97739
3.95827
4.27004
4.32906
4.32053
4.66331
6.33572
10.2301
15.7992
20.9997
25.2608
28.4474
30.0753
29.712
26.591
21.9687
17.0301
12.7796
9.63712
7.40979
5.79943
5.06228
4.84121
5.02892
5.2737
5.11039
4.88535
4.63728
4.4071
4.36573
4.54862
4.90681
5.32416
5.73494
6.13081
6.37238
6.61334
7.20071
7.85907
8.86694
10.568
13.0104
16.0655
19.7402
24.4049
30.11
35.7933
41.8593
47.4608
53.8573
59.2751
64.3031
69.0535
74.6898
78.5986
83.3846
85.6842
88.6365
91.3296
94.1113
95.9037
98.2945
100.057
100.81
100.976
99.2148
98.3137
97.5342
95.7354
92.376
88.0563
84.1184
80.005
75.7849
72.1459
69.5655
67.2305
68.3763
62.348
57.0378
53.8292
52.1854
53.4901
48.507
46.2411
2.76979
7.20792
30.3585
80.2729
79.5297
57.8218
30.2244
15.1772
8.23936
4.95486
3.67031
3.47216
4.35366
6.70995
12.2701
5.46546
3.96171
3.92947
4.49581
4.57258
4.85846
6.78389
11.1106
16.7691
21.7569
26.3192
28.992
29.9132
29.0707
25.7618
21.3392
16.7355
12.7044
9.73402
7.65713
6.28372
5.50927
5.3474
5.62689
5.87205
5.75693
5.63705
5.40246
4.90758
4.81088
5.0807
5.59963
6.19872
6.70063
7.28664
7.6952
8.29434
9.49042
10.2905
11.4933
13.6319
16.5359
20.0458
23.6587
28.2498
33.7988
39.1225
44.9003
50.183
56.4699
61.3537
66.1505
70.6962
76.2259
80.0256
84.2591
86.5766
89.4251
92.0361
94.7138
96.6928
99.098
101.109
101.6
101.816
99.7096
98.6021
97.8506
95.8625
92.5819
88.2269
84.235
80.0796
75.8746
72.2019
69.6658
67.3213
68.4884
62.3618
57.0355
53.8224
52.163
53.4484
48.5102
46.2026
2.87058
6.56783
33.5497
60.2182
52.8271
37.5354
19.2507
10.8289
6.52459
4.68526
4.10468
4.19402
4.86511
7.24366
8.85897
6.13005
4.17957
3.93977
4.85762
4.65926
5.11843
7.45619
12.19
17.5358
22.5091
27.1231
29.967
29.8353
28.7297
25.1947
20.9013
16.4909
12.6413
9.86167
7.97934
6.71757
5.96273
5.80514
6.12674
6.41692
6.49132
6.20327
6.17599
5.40833
5.31534
5.73245
6.47854
7.21239
8.02064
8.81791
9.60183
10.5737
12.4227
13.4364
14.9274
17.4614
20.6918
24.7464
28.0796
32.5474
37.9592
42.9927
48.3642
53.3505
59.6491
63.779
68.3443
72.7723
78.0309
81.7314
85.4474
87.6415
90.3309
92.8899
95.4722
97.5662
100.033
102.617
102.64
102.666
100.256
99.1031
98.2228
96.0908
92.8006
88.4233
84.3767
80.1566
75.9583
72.2646
69.7838
67.4389
68.4514
62.3731
57.0358
53.8145
52.1344
53.3871
48.4893
46.1523
2.82595
6.3173
25.0522
35.4612
30.7726
27.158
13.841
8.02946
5.9157
5.08799
4.86171
5.22911
6.07822
7.80266
7.91042
6.347
4.53612
4.03827
4.38246
4.60105
5.4609
8.27663
13.2746
19.0818
23.6564
27.8212
32.619
29.8239
28.3009
24.6267
20.5284
16.2614
12.611
10.0546
8.43936
7.39909
6.54695
6.33724
6.77522
6.96776
7.06031
6.55523
6.19348
5.78873
5.85672
6.44328
7.45226
8.38241
9.63882
10.9798
12.1111
13.5955
15.7656
17.2785
19.143
21.9219
25.3105
29.5715
32.749
37.1191
42.6201
47.3378
52.1721
56.804
62.7079
66.4693
70.808
75.1276
80.0035
83.5605
86.7674
88.8418
91.3698
93.8761
96.354
98.5128
101.061
104.707
103.971
103.462
100.842
99.7564
98.4525
96.258
92.9818
88.637
84.5438
80.2246
76.0394
72.3306
69.9131
67.5792
68.1916
62.42
57.0524
53.8056
52.0992
53.2987
48.4476
46.0917
2.73802
6.65098
19.1096
24.458
19.8997
15.8923
10.0166
7.63296
6.5128
5.95683
5.92292
6.51031
9.02999
8.07973
7.04482
5.92809
4.7324
4.29116
4.50331
4.80489
6.21632
9.20123
14.0448
20.9992
24.6409
28.8142
30.0383
29.4655
28.0886
24.2278
20.0658
15.9061
12.5425
10.2639
8.84969
8.36711
7.36564
7.01484
7.56027
7.79587
7.26807
6.81494
6.44347
6.23425
6.4777
7.3002
8.71056
10.2015
12.0134
13.8326
15.3267
17.2398
19.6301
21.9424
24.5536
26.9172
30.3409
34.4793
37.7143
41.8081
46.6083
51.8749
56.0867
60.5322
65.6127
69.3803
73.4303
77.6353
82.1369
85.3536
88.0887
90.1387
92.5259
94.9739
97.2999
99.5201
102.106
107.329
105.457
104.215
101.527
100.378
98.7222
96.4444
93.0916
88.8553
84.724
80.3395
76.1312
72.3978
70.0446
67.7356
67.7374
62.5039
57.0765
53.7958
52.0571
53.1773
48.3866
46.022
2.75835
6.78591
14.4564
17.4181
14.6191
11.2031
8.62023
7.85697
7.23044
7.24668
7.09391
7.79069
10.2169
9.30637
6.95535
6.03196
5.04345
4.74744
4.98703
5.24805
7.09978
10.4738
15.6324
21.3075
25.2423
29.724
30.1895
29.0854
27.5284
23.421
19.3761
15.5274
12.4859
10.3786
9.44145
8.6055
8.15234
7.79344
8.24531
8.90156
7.58009
6.99809
6.75328
6.82547
7.31926
8.55628
10.4226
12.6473
15.1901
17.4242
19.285
21.3688
24.158
26.7479
31.4193
32.313
35.8028
39.5752
42.7754
46.584
50.9252
56.2282
60.069
64.3738
68.7352
72.3563
76.1279
80.2732
84.2065
87.2202
89.7738
91.5888
93.7721
96.0959
98.4281
100.572
103.043
109.929
106.58
105.033
102.274
100.929
99.0118
96.6619
93.1936
89.1006
84.9394
80.448
76.222
72.4653
70.168
67.8978
67.1735
62.6398
57.1109
53.7847
52.0077
53.0179
48.3076
45.9442
2.83669
6.15162
11.0808
13.1884
12.1204
10.07
8.30852
8.19178
8.03967
7.68761
8.07654
8.53589
10.8155
9.66846
7.50659
6.449
5.5811
5.09672
5.03244
5.80544
7.94553
11.7152
17.0652
22.2261
26.3632
30.9223
30.2339
28.505
26.4202
22.7086
18.8154
15.2229
12.1787
10.3306
10.2456
8.99243
8.55604
8.66629
8.76289
8.81412
7.90151
7.34825
7.27647
7.69498
8.55038
10.2305
12.7212
15.6817
19.1619
21.7139
24.0959
26.2289
29.0487
31.7496
36.3242
37.9182
41.199
44.445
47.6907
51.2961
55.5554
60.3744
64.2006
68.0001
72.0852
75.2893
78.8216
82.9139
86.3206
89.1057
91.4077
93.0756
95.0763
97.2831
99.593
101.655
103.967
111.643
106.943
105.792
103.144
101.65
99.3459
96.9236
93.3401
89.3567
85.1992
80.554
76.3123
72.5385
70.2716
68.0529
66.5778
62.8413
57.1571
53.7721
51.9507
52.8182
48.2121
45.8596
2.85344
5.50369
9.25541
11.5172
11.115
9.21202
8.77085
8.47929
8.36377
8.02557
7.84082
8.73348
10.2609
10.3769
8.32385
6.75878
5.84431
5.30335
5.28394
6.52884
9.08252
13.1618
18.5707
23.3663
27.3197
30.469
29.9611
27.9202
25.5117
22.0935
18.4339
14.9991
12.2379
10.5487
9.76749
9.08933
8.96364
9.60198
10.0277
9.50955
8.41259
7.98769
8.1017
8.96413
10.3096
12.4233
15.6301
19.0188
23.3158
26.7038
30.5084
31.7751
34.171
37.0173
42.3874
43.3733
46.5079
49.7127
52.7981
55.9672
60.4399
64.6555
68.2494
71.6223
75.6603
78.3128
81.5085
85.4033
88.5269
90.882
92.9664
94.5728
96.4099
98.5042
100.762
102.696
104.897
110.304
107.248
106.507
103.968
102.28
99.6842
97.2516
93.4598
89.5916
85.5135
80.662
76.4074
72.5999
70.3449
68.1877
66.0201
63.1139
57.2145
53.7575
51.886
52.5783
48.1085
45.769
3.01625
5.37279
8.79178
10.9207
10.9969
9.18963
9.48828
8.67373
8.16953
7.817
7.66305
9.12292
11.1483
10.4747
8.52741
6.63372
5.69061
5.25398
5.34229
7.46597
10.2538
14.573
20.0651
24.4192
28.3399
30.9385
29.4495
27.1983
24.7924
21.4987
18.1794
15.1073
12.5057
10.7633
9.70193
9.27201
9.32716
10.1289
11.322
10.163
9.09959
9.12313
9.29606
10.687
12.7132
15.1136
19.3649
23.2567
27.2267
31.5512
38.5388
37.055
38.8337
41.563
46.6085
48.551
51.983
55.6554
57.7128
60.6803
65.1526
68.7198
72.1581
75.1104
79.2053
81.1829
83.974
87.5494
90.4822
92.6597
94.5317
96.0617
97.7483
99.7336
101.925
103.745
105.829
109.444
107.953
107.329
104.618
102.812
100.03
97.6147
93.5702
89.8009
85.8746
80.7708
76.5096
72.7484
70.393
68.2847
65.5373
63.4528
57.2809
53.7399
51.8138
52.3012
47.9897
45.6735
4.08201
6.33763
9.16997
10.8444
10.5045
9.12487
8.89103
8.08385
7.43996
7.31512
7.79573
10.2874
11.9663
12.4037
8.21805
6.35076
5.48264
5.1593
5.72024
8.23895
11.5247
16.0396
21.4939
25.4954
28.8456
32.9258
29.8594
27.1023
23.7424
20.8153
18.034
15.7122
12.8932
11.1958
9.99738
9.49574
9.61523
10.2247
10.9544
10.7063
9.80795
10.6531
10.8344
12.854
15.3723
17.9907
23.1034
30.262
31.2715
35.4447
42.2703
41.0454
43.4217
46.5947
52.3428
53.3924
56.6738
61.5507
62.4535
65.3539
69.5935
72.713
75.8045
78.4075
82.2662
83.7128
86.2178
89.5137
92.3449
94.3404
96.0215
97.5274
99.0694
100.949
103.066
104.783
106.802
109.23
107.975
108.245
105.213
103.241
100.387
97.9704
93.6799
89.9779
86.2202
80.8741
76.6917
73.0729
70.3801
68.3691
65.1522
63.842
57.3521
53.7184
51.7343
51.9998
47.8585
45.5739
6.66231
8.26134
9.61075
11.1239
11.6353
9.44968
8.42065
7.55539
6.65521
5.78905
6.74448
8.47378
11.8122
11.8103
7.94765
6.26427
5.45413
5.23433
6.26979
9.62541
13.037
17.3567
22.4086
26.5638
29.2745
30.8227
29.7084
26.5067
23.3701
20.371
17.624
16.8573
13.3476
11.5236
10.4021
9.84909
9.99734
10.5865
11.306
11.029
10.6924
11.2952
12.6944
15.5426
18.0652
21.0252
26.0207
31.0642
35.397
39.8265
44.3005
45.1271
48.0963
51.2061
56.325
57.9031
61.2483
65.2032
67.0639
70.1723
73.8036
76.6023
79.181
81.5556
84.8407
85.9724
88.3587
91.3162
94.0368
95.8804
97.4423
98.9603
100.352
102.132
104.161
105.786
107.888
109.416
108.534
109.236
105.734
103.644
100.796
98.2435
93.7819
90.1045
86.4112
80.9603
77.0784
73.8188
70.3709
68.4328
64.8428
64.2553
57.4221
53.692
51.6477
51.673
47.7176
45.4709
12.3414
10.3434
10.3302
11.0872
9.68311
8.57815
7.86675
6.97075
5.50569
5.74518
5.64196
7.70653
10.0899
11.0829
7.73478
6.24817
5.54688
5.42614
7.11206
10.6824
14.4751
19.2532
25.4194
28.2623
29.9667
30.8564
29.9862
26.0723
22.8847
20.0148
17.7896
15.724
13.2511
11.4361
10.756
10.1668
10.5291
10.6708
11.7495
11.8788
11.7422
12.656
15.107
19.2616
21.8343
24.685
30.1404
34.8623
39.6611
44.3504
48.0515
49.5769
52.6784
55.8447
60.3856
62.3173
65.6636
69.3917
70.7296
76.1791
77.6651
80.1903
82.4568
84.5142
87.0352
87.9957
90.2538
92.9092
95.5273
97.2938
98.7968
100.351
101.58
103.267
105.185
106.711
109.193
110.828
109.115
110.127
106.201
104.002
101.184
98.4524
93.8732
90.2053
86.4088
81.0286
77.7991
75.5353
70.3032
68.4585
64.5935
64.6584
57.4831
53.6592
51.5546
51.3292
47.57
45.3654
11.5399
10.073
10.0457
9.26831
9.12751
8.39694
7.85929
6.56958
5.46902
5.17793
5.23532
6.63939
8.47343
10.8633
8.12199
6.34835
5.76528
6.20445
8.59845
12.3589
16.9366
21.6942
26.4997
30.2047
30.272
31.0082
31.4344
26.1062
22.6491
19.7635
18.6381
15.5276
12.8278
11.2903
10.6125
10.285
11.0757
11.1043
11.845
13.6961
13.5253
14.7976
18.2645
24.5329
28.1739
29.361
34.9323
39.5825
44.8268
49.6989
53.2124
55.044
58.3121
61.6551
65.3205
67.3851
70.8242
74.4215
75.9064
78.789
81.6738
84.5053
85.8531
87.5866
89.3646
90.1851
92.1922
94.5437
97.1846
98.9323
100.329
101.95
102.958
104.548
106.275
107.66
109.951
115.368
109.78
111.903
106.66
104.366
101.656
98.5899
93.9483
90.2502
86.2632
81.0605
78.2829
78.2006
70.1631
68.4645
64.3456
65.081
57.5351
53.6111
51.4359
50.908
47.3885
45.2367
4.27693
9.30989
9.74879
9.62707
9.67711
9.57613
8.62697
6.85172
5.85635
5.26968
5.03733
5.95004
7.12613
9.701
7.6822
6.63186
6.28114
7.40585
10.7351
14.6416
19.7749
24.4518
28.7022
30.9645
31.003
32.7465
29.5513
25.7922
24.2015
19.282
16.8877
14.2301
12.1153
11.0449
10.5186
10.3985
10.9224
11.5676
12.4408
14.4209
16.4465
17.8479
21.9854
26.7098
30.5795
34.3656
40.3864
45.6664
51.0468
55.614
58.8756
61.3061
64.6759
67.5293
70.7113
72.704
75.9202
80.0979
80.7229
82.9857
85.5352
92.4004
88.8852
90.3997
91.7049
92.3109
94.0168
96.2088
98.8445
100.565
101.929
103.663
104.38
105.799
107.454
108.587
110.495
110.996
110.371
111.316
107.006
104.706
102.147
98.5886
93.9346
90.2131
86.1245
81.0445
78.1354
76.1132
69.9089
68.4309
64.0982
65.3947
57.5411
53.5387
51.2902
50.4278
47.1764
45.0863
1.31926
7.58175
9.47457
9.83085
10.4503
10.6394
9.447
7.90823
6.75767
5.89835
5.28799
5.76803
6.71453
8.13883
7.50382
6.85955
7.29347
9.27628
12.6296
16.7747
24.1627
27.4662
31.3159
32.0816
33.1042
31.5432
28.9768
25.1929
23.2926
18.4982
17.38
13.9802
11.8446
11.0437
11.0876
10.5308
11.144
11.911
13.2151
16.0896
18.6603
22.0036
26.5863
33.0159
35.6678
40.259
46.295
51.6183
57.1232
61.2502
64.3246
67.6422
70.3641
73.033
75.8187
77.5032
80.2429
84.5393
84.3858
86.4725
88.5323
90.7315
91.071
92.6405
93.568
94.0116
95.5056
97.6364
100.146
101.887
103.329
105.179
105.605
106.884
108.414
109.437
111.131
111.21
110.848
110.49
107.259
104.967
102.433
98.4722
93.854
90.0668
85.9875
80.971
78.2331
76.1743
69.592
68.3159
63.8517
65.4535
57.4744
53.4466
51.1373
49.9716
46.9665
44.935
0.787436
4.76277
7.99779
9.58437
10.6759
10.8057
9.96646
9.02419
8.01856
6.9932
6.0592
5.8175
6.52163
7.44938
7.63801
7.72121
8.79774
11.9014
15.1963
20.1676
26.6637
30.9594
34.0742
33.9346
33.5817
31.9696
28.7597
25.0907
21.1305
17.7605
15.7063
13.0471
11.6076
11.043
10.6814
10.706
11.8056
12.9783
14.4293
18.3401
22.9386
26.9202
31.3508
37.1159
41.0557
46.8392
52.0318
57.1893
62.7157
66.4152
69.7569
72.8478
75.5443
77.7583
80.2285
81.5283
84.0864
86.9024
87.1559
89.3054
91.3486
92.5636
92.7679
94.4037
95.2424
95.429
96.6806
98.6955
101.088
103.166
104.552
106.374
106.609
107.77
109.117
110.103
111.533
111.261
111.129
110.088
107.424
105.09
102.5
98.2546
93.6933
89.8122
85.8076
80.8338
78.1309
74.2162
69.224
68.0976
63.5898
65.2066
57.323
53.3331
50.9781
49.5498
46.7613
44.7826
0.763791
2.37624
5.68588
8.2725
9.74736
9.86088
9.84534
9.93699
9.58336
8.71004
7.53786
7.25355
6.94026
7.46032
8.1018
9.13249
11.0062
14.6187
19.3182
24.735
31.0803
36.0018
35.9222
35.8189
34.812
33.0819
28.6476
26.6251
21.2005
17.6299
15.2481
13.0355
12.0586
11.3346
11.138
11.207
12.3351
14.7124
16.65
21.6158
27.8856
32.3007
37.2536
42.5017
46.911
52.0896
57.8961
62.4225
67.4922
70.8522
74.2855
76.8619
79.5613
82.1402
83.7407
84.6531
87.0307
88.8343
89.4344
91.4359
92.9709
93.7534
94.0705
95.7469
96.4482
96.3964
97.5375
99.4849
101.781
104.098
105.559
107.207
107.373
108.43
109.566
110.354
111.674
111.204
111.139
109.9
107.551
105.111
102.302
97.9645
93.438
89.4638
85.5505
80.6251
78.0493
72.9296
68.8387
67.7588
63.2828
64.6607
57.0834
53.1976
50.8124
49.1661
46.5617
44.6283
0.827395
1.32246
3.48059
6.17415
7.7264
8.11356
9.14727
10.6068
11.3622
11.0293
9.81724
8.85846
7.90194
8.24733
9.30406
10.9874
14.3265
19.9591
24.7014
29.8537
34.916
37.4317
38.095
37.8925
36.4471
34.8935
30.1634
25.9518
21.5212
18.1234
15.7985
13.7646
12.6994
12.1794
12.1257
12.5328
14.0791
17.3461
20.0734
26.2714
34.0237
37.3673
44.0119
48.1188
52.5892
57.567
63.2634
66.7782
71.4444
74.5352
77.9231
79.8767
82.1845
82.5138
86.5901
87.0054
88.8311
90.3473
91.2484
92.903
94.0193
94.5672
94.9265
96.554
96.9906
96.922
98.0832
99.9981
102.209
104.755
106.306
107.671
107.875
108.849
109.811
110.703
111.737
111.112
110.96
109.64
107.517
104.943
101.996
97.5804
93.073
89.0324
85.2306
80.3229
77.7115
72.2114
68.4449
67.3167
62.93
63.8547
56.791
53.0405
50.6394
48.818
46.3669
44.471
0.853271
1.02539
2.09239
4.05587
5.39239
6.12909
8.08206
11.0022
13.2548
13.9195
13.0887
11.3488
10.3503
10.814
11.881
14.4186
19.8596
25.4036
31.6097
35.884
39.6325
40.0978
40.9607
40.0076
38.4703
38.0377
31.5615
27.364
22.9147
19.7349
17.598
15.6557
15.1217
14.505
14.6012
15.2183
17.6103
20.6543
24.9737
31.6409
38.6441
44.6105
48.7578
53.3951
57.8409
62.2971
66.8884
70.3842
74.5454
77.3554
80.6767
81.981
83.8045
88.8665
88.4069
88.3843
89.9483
91.3436
92.3855
93.7665
94.6191
95.0503
95.3289
96.6853
97.1166
97.1891
98.3269
100.232
102.391
105.16
106.747
107.776
108.098
109.02
109.867
110.799
111.552
110.844
110.588
109.214
107.237
104.569
101.614
97.0473
92.5931
88.5228
84.7666
79.9622
77.0933
71.658
68.0378
66.7614
62.5278
62.8718
56.4422
52.8625
50.4581
48.5128
46.1751
44.3105
0.826965
0.94843
1.47912
2.62164
3.60873
4.56295
7.08178
11.2788
15.2408
17.3243
17.2479
15.5123
14.3684
14.6384
16.4244
20.0922
26.1016
33.513
36.995
42.5001
43.6061
43.663
43.3673
41.9227
39.7388
38.7526
31.9975
29.1939
25.1425
22.666
21.0125
19.5876
18.9499
18.5326
18.6943
19.6476
22.2236
25.8305
30.8121
37.2082
44.2459
50.2772
53.4531
58.5047
62.3892
65.9812
69.5459
73.1787
76.7859
79.3669
82.7778
83.3004
84.7957
87.1835
88.8548
89.1367
90.4499
91.6172
93.3323
95.3118
94.8298
95.2876
95.3194
96.4109
96.8021
97.0878
98.2712
100.188
102.33
105.246
106.978
107.662
108.049
108.941
109.718
110.587
111.095
110.385
110.024
108.564
106.672
104.054
101.16
96.3739
92.0033
87.9365
84.2019
79.5128
76.2677
71.1504
67.614
66.1226
62.085
61.8066
56.0571
52.6645
50.2667
48.2338
45.9835
44.1438
0.77381
0.895443
1.2648
1.94901
2.64393
3.60564
6.33627
11.4656
17.193
21.0055
22.1307
21.2781
20.2786
20.813
22.8186
28.4321
34.1305
41.1711
43.4288
49.8677
47.9413
47.0212
45.9067
43.4093
41.9364
38.629
34.5253
31.4117
28.8744
27.3591
26.4131
25.2673
24.7659
24.2902
24.3452
25.5104
27.9383
32.5287
36.6406
45.2002
50.7121
55.4929
58.5273
62.9315
65.8642
68.7215
71.5508
75.2769
78.116
80.5792
84.1127
83.7457
84.9725
86.5792
88.6414
89.182
90.379
91.4461
93.7744
94.8468
94.6042
95.2764
94.9331
95.7312
96.0947
96.6625
97.9299
99.8772
102.024
105.073
106.953
107.286
107.745
108.612
109.341
110.125
110.423
109.734
109.271
107.756
105.817
103.368
100.469
95.5667
91.3198
87.273
83.5516
78.9712
75.3825
70.6444
67.1717
65.4346
61.6126
60.7437
55.6543
52.4477
50.0635
47.9721
45.7889
43.9691
0.719788
0.850104
1.18191
1.70141
2.21777
3.01594
5.65327
11.3299
18.7182
24.5393
27.2909
27.6381
27.4281
28.5643
31.3469
38.2093
42.0798
47.447
50.2975
52.8096
52.0112
50.8355
48.9869
46.4302
44.3479
41.2786
37.9765
35.5307
34.2626
33.4052
33.0419
32.2773
31.8231
31.2242
31.0149
32.4567
34.6202
38.6139
43.0048
50.8234
56.0243
60.1393
62.5839
66.6403
68.2584
70.1846
72.8657
76.5417
78.6807
80.9258
83.439
83.3096
84.4149
85.8845
87.9029
88.8432
89.7885
90.8658
93.7047
93.598
93.9275
94.8694
93.9673
94.8066
95.2643
95.9741
97.3206
99.3074
101.475
104.634
106.63
106.697
107.194
108.038
108.728
109.434
109.56
108.889
108.335
106.789
104.786
102.458
99.4133
94.6715
90.5338
86.5293
82.8107
78.3445
74.5274
70.1224
66.7091
64.7283
61.1208
59.7439
55.247
52.2122
49.8467
47.7198
45.5883
43.7847
0.686919
0.843127
1.14716
1.59881
2.00195
2.53948
4.8085
10.62
19.3495
27.4025
32.1674
34.0307
35.0245
37.0915
40.9757
46.6306
50.1186
53.2305
55.4284
57.1083
56.1385
54.5959
52.2736
49.6029
47.3246
44.7735
42.4091
40.4549
40.0615
39.7912
39.8065
39.2744
38.9087
38.306
38.1672
39.2775
41.2248
44.6447
48.9759
55.2306
60.5082
64.0091
65.7382
67.6764
69.4992
70.8237
73.3188
76.566
78.1451
80.3847
81.9572
82.1183
83.1997
84.653
86.6775
87.963
88.6993
89.8881
92.9699
92.1226
92.8987
93.8166
92.6214
93.6228
94.1507
95.0203
96.4588
98.4929
100.686
103.935
105.994
105.869
106.404
107.224
107.884
108.518
108.51
107.849
107.222
105.664
103.625
101.385
98.0857
93.6638
89.6743
85.702
81.9875
77.6397
73.7256
69.5774
66.2234
64.0264
60.6167
58.8391
54.8417
51.9577
49.6144
47.4695
45.3784
43.5889
0.693286
0.884328
1.14296
1.50687
1.78752
2.04392
3.75918
9.22834
18.7447
29.017
36.1118
39.8437
42.2819
45.2982
49.6391
54.0922
56.9741
59.0654
60.4013
61.1579
59.9524
57.9751
55.3276
52.4517
50.3962
48.1042
46.6552
45.7626
45.8416
45.7561
45.8601
45.6975
45.4434
44.8466
44.6397
45.5134
47.2157
49.9202
53.6348
58.8188
64.1422
66.6138
68.0645
68.3985
69.4718
70.3585
72.5715
75.4766
77.0863
79.017
80.0411
80.3675
81.4267
82.9022
85.0012
86.5657
87.1219
88.2427
91.6896
90.6022
91.2767
92.0975
91.1324
92.1484
92.7879
93.826
95.3628
97.4468
99.6581
102.999
105.018
104.786
105.378
106.178
106.809
107.377
107.27
106.614
105.934
104.379
102.343
100.13
96.6633
92.5585
88.7012
84.7888
81.09
76.8831
72.9498
69.0046
65.7113
63.3411
60.104
58.0361
54.4394
51.6835
49.3647
47.2151
45.1566
43.38
0.751254
0.948667
1.10532
1.33285
1.47581
1.51934
2.63172
7.25398
16.7538
28.8238
38.3854
44.2743
48.3381
52.2365
56.5746
60.126
62.2856
63.5575
64.1215
64.2154
62.6909
60.3103
57.3796
54.3294
52.3923
50.7144
49.3296
49.8058
50.2199
50.6352
51.0428
51.0649
50.9326
50.3023
49.9464
50.4206
51.7356
53.7775
56.6699
61.0958
66.6159
67.8047
71.6497
67.8664
68.5027
69.3202
71.1132
73.8126
75.3297
76.9187
77.7077
78.1452
79.1942
80.7021
82.9628
84.6476
85.0721
86.2283
89.8476
88.7125
89.3297
89.8492
89.3238
90.4189
91.2086
92.4156
94.0511
96.1814
98.4021
101.784
103.747
103.438
104.124
104.907
105.511
106.015
105.841
105.187
104.473
102.934
100.928
98.7076
95.2353
91.3569
87.6197
83.7896
80.1244
76.0615
72.1757
68.3999
65.1696
62.6753
59.5832
57.3235
54.0371
51.3884
49.0959
46.9512
44.9244
43.1565
0.854878
0.947244
0.940446
1.02442
1.07388
1.03806
1.63835
5.01646
13.4891
26.2782
38.234
46.4467
52.2349
56.9518
61.1507
63.9167
65.3145
65.9221
65.9576
65.5099
63.6192
60.8909
57.59
54.447
52.3697
51.2725
50.7957
51.5008
52.6368
53.5642
54.5356
54.9819
54.9289
54.2796
53.7323
53.6939
54.4726
55.5893
57.932
62.0035
67.2392
67.4905
66.7509
66.6243
66.6189
67.4606
69.0403
71.5385
72.952
74.3058
74.9915
75.5303
76.5922
78.1376
80.6214
82.2652
82.5945
83.8747
87.4582
86.4743
87.1242
87.3613
87.2891
88.4844
89.443
90.8119
92.5412
94.7106
96.9295
100.157
102.168
101.971
102.652
103.417
103.996
104.443
104.226
103.574
102.842
101.329
99.3728
97.1407
93.7472
90.0625
86.4353
82.7069
79.1053
75.1813
71.3847
67.7599
64.5958
62.0252
59.0527
56.6809
53.6305
51.0711
48.8066
46.6739
44.6751
42.9173
0.949151
0.741934
0.626151
0.646303
0.679581
0.66825
0.940842
2.98608
9.42745
21.3436
35.1285
45.5395
52.9783
58.3866
62.3546
64.4336
65.2103
65.3885
65.0878
64.1774
61.8915
58.6212
55.0466
51.9092
50.3439
49.7957
50.247
51.5982
53.4366
55.1523
56.5721
57.1396
56.9824
56.2888
55.9268
55.0756
55.2915
55.5284
57.5054
61.1707
66.0895
66.08
73.9388
64.3069
64.0639
64.978
66.466
68.7196
70.0559
71.2712
71.9581
72.6024
73.7015
75.2792
77.6706
79.5928
80.0785
81.2374
84.61
83.9416
84.6481
84.7815
85.0963
86.392
87.5191
89.0361
90.8512
93.0512
95.2545
98.3019
100.254
100.25
100.968
101.72
102.277
102.673
102.432
101.786
101.048
99.5687
97.6745
95.4461
92.1809
88.6688
85.1545
81.545
78.0267
74.2477
70.5667
67.0824
63.9882
61.3834
58.5097
56.086
53.2145
50.7305
48.4956
46.3802
44.4076
42.6617
0.197903
0.264594
0.294365
0.339294
0.391479
0.43052
0.548253
1.5103
5.0986
13.1293
25.6844
37.9806
47.0134
52.8714
56.3177
57.6895
58.0633
58.0941
57.5798
56.0994
53.1628
49.5236
46.173
44.1827
44.1436
45.2551
47.3104
50.1026
52.9616
55.3699
57.0204
57.5669
57.2461
55.451
57.9892
53.2765
52.829
52.7958
54.3817
57.6668
61.8062
62.0339
61.4895
59.1289
59.2586
60.269
61.6672
63.5168
64.7703
65.8813
66.6849
67.5081
68.7067
70.3172
72.6413
74.704
75.493
76.6205
79.4873
79.5809
80.3371
80.5764
81.3752
82.8217
84.2072
85.9333
87.871
90.1039
92.266
95.0006
96.7523
97.1198
97.9387
98.6767
99.2009
99.5311
99.2724
98.6681
97.9131
96.4989
94.7212
92.5318
89.5184
86.271
82.9669
79.5561
76.2023
72.6675
69.198
65.9314
62.9702
60.3499
57.6103
55.1723
52.5233
50.1431
47.959
45.8776
43.9462
42.2228
0.131741
0.174713
0.203861
0.22698
0.253542
0.283185
0.317013
0.468227
1.33783
3.79297
8.26437
14.8124
21.1922
25.6618
28.5706
30.6034
32.3666
33.6615
33.7566
32.5224
30.6436
29.3345
29.2912
30.7485
33.633
37.2339
41.1387
45.024
48.3049
50.5637
51.6161
51.3905
50.0173
48.7488
47.0432
45.1727
45.0046
45.3024
46.8361
49.3104
52.8402
53.8267
52.185
51.4641
51.8874
52.965
54.3503
55.835
56.8638
57.9594
58.9376
60.0365
61.4188
63.0902
65.2891
67.1965
68.428
69.8033
72.1069
72.9588
73.9895
74.7173
75.9485
77.5454
79.2001
81.1207
83.1581
85.3805
87.464
89.8205
91.324
92.0904
92.9893
93.7202
94.2124
94.4865
94.2447
93.7188
92.9963
91.6993
90.13
88.1075
85.4775
82.6108
79.6173
76.5424
73.4963
70.3138
67.1618
64.1894
61.4299
58.8724
56.2936
53.9264
51.4837
49.2155
47.1112
45.0903
43.2175
41.5356
0.189138
0.235881
0.259186
0.252109
0.240618
0.237429
0.243764
0.260153
0.335762
0.582217
1.04368
1.86902
3.13044
4.46015
5.86358
7.41587
9.06493
10.453
11.335
11.9563
12.8647
14.5188
17.0785
20.5321
24.7906
29.3663
33.7009
37.4345
40.0862
41.46
41.5915
40.6773
39.1583
37.8726
36.5761
35.6515
36.052
36.8418
38.4063
40.6503
43.5765
44.0314
43.3578
43.5224
44.2617
45.3599
46.5878
47.7784
48.8375
50.0958
51.3514
52.5725
54.0565
55.7357
57.7256
59.5242
61.082
62.6917
64.7007
66.0273
67.3654
68.5671
70.1221
71.8815
73.7274
75.7539
77.8294
79.9886
81.9786
84.0369
85.4098
86.368
87.2691
87.9938
88.4635
88.7152
88.5284
88.1023
87.4586
86.325
85.0054
83.2364
81.0215
78.5556
75.9311
73.2444
70.548
67.7289
64.9086
62.2224
59.6732
57.2432
54.8233
52.5739
50.3004
48.1357
46.1238
44.1762
42.3689
40.7418
0.231985
0.30206
0.326255
0.309402
0.281351
0.258964
0.246761
0.242353
0.2437
0.256688
0.286024
0.35382
0.489329
0.687195
0.961443
1.32419
1.76311
2.26244
2.88026
3.75372
5.0498
6.92235
9.46926
12.6871
16.489
20.4596
24.0063
26.7769
28.4821
29.1234
28.9169
28.2142
27.4276
26.8989
26.6139
26.8021
27.7213
28.8768
30.4722
32.3782
34.2998
34.9653
35.2726
35.9073
36.7592
37.7939
38.8995
40.0453
41.233
42.5733
43.9438
45.3868
47.0018
48.7168
50.5079
52.2365
53.9197
55.5888
57.4778
59.092
60.6887
62.2419
64.0135
65.8973
67.8553
69.9149
71.9711
74.0287
75.9081
77.7329
79.0323
80.038
80.9441
81.6309
82.0971
82.3632
82.262
81.9644
81.4412
80.5208
79.487
78.0341
76.2451
74.1998
72.0014
69.7088
67.3737
64.924
62.4395
60.0328
57.7031
55.4342
53.1936
51.069
48.9436
46.9121
44.9858
43.1231
41.391
39.8329
0.234971
0.324379
0.355047
0.343652
0.318269
0.295108
0.278813
0.267779
0.259807
0.255698
0.258548
0.270767
0.295735
0.33512
0.391624
0.466097
0.55657
0.668749
0.836272
1.14163
1.70454
2.6507
4.077
6.00374
8.37653
10.9219
13.232
15.0633
16.2773
16.9312
17.2133
17.3507
17.552
17.9382
18.4785
19.3184
20.4835
21.7518
23.1952
24.7108
26.115
27.0407
27.8084
28.6497
29.582
30.6305
31.7446
32.9213
34.1832
35.6083
37.1303
38.6815
40.2674
41.8914
43.6556
45.416
47.138
48.8318
50.6322
52.3338
54.0577
55.8062
57.693
59.6445
61.6442
63.6805
65.6716
67.6058
69.3619
70.9985
72.2351
73.2375
74.1234
74.792
75.2824
75.6005
75.6162
75.4724
75.117
74.4821
73.7236
72.6207
71.2525
69.6342
67.8606
65.9711
64.0019
61.9147
59.7595
57.6254
55.5185
53.4291
51.3712
49.3872
47.4104
45.5111
43.6859
41.9212
40.277
38.8014
0.231618
0.325593
0.358428
0.353145
0.333658
0.315017
0.301481
0.291521
0.283495
0.278054
0.278337
0.28607
0.301584
0.323514
0.349076
0.374895
0.398012
0.418083
0.442125
0.495072
0.62319
0.889849
1.35737
2.07035
3.03375
4.19231
5.40471
6.54664
7.5412
8.37425
9.09138
9.7716
10.4936
11.3007
12.1752
13.1851
14.3149
15.4775
16.6878
17.9085
19.0724
20.0733
20.9985
21.947
22.9624
24.0677
25.2428
26.4905
27.8278
29.2912
30.8267
32.3688
33.9443
35.5333
37.1871
38.8419
40.5597
42.3189
44.0783
45.8061
47.5495
49.3354
51.2359
53.1881
55.1672
57.1365
59.0332
60.8368
62.4698
63.9539
65.1346
66.1228
66.9888
67.6682
68.2135
68.6158
68.7767
68.8096
68.6584
68.3213
67.8548
67.112
66.1458
64.9427
63.5751
62.076
60.4612
58.7186
56.8757
55.0055
53.1199
51.2217
49.3488
47.5155
45.6927
43.9268
42.2181
40.5645
39.0215
37.6422
0.22973
0.319258
0.349986
0.347987
0.33253
0.317208
0.306357
0.298763
0.293068
0.289885
0.291778
0.300439
0.315881
0.336367
0.358542
0.378683
0.393906
0.403071
0.407862
0.414244
0.433845
0.486345
0.593373
0.778102
1.05784
1.45221
1.94362
2.50586
3.10952
3.72831
4.35604
5.00862
5.70743
6.46533
7.27566
8.15629
9.09403
10.0563
11.0472
12.0633
13.0775
14.0557
15.0205
16.0191
17.0802
18.2184
19.4259
20.7056
22.0641
23.5124
25.0064
26.4822
27.9642
29.4663
31.0444
32.6463
34.2679
35.9461
37.6992
39.4395
41.1602
42.9109
44.7384
46.6211
48.5256
50.3963
52.1834
53.8627
55.3843
56.7551
57.8936
58.8747
59.7422
60.4639
61.091
61.6051
61.9313
62.1557
62.229
62.1865
62.0054
61.6125
61.0147
60.1953
59.2005
58.0628
56.779
55.3521
53.7989
52.1804
50.5124
48.8112
47.1234
45.4493
43.7853