/*--------------------------------*- C++ -*----------------------------------*\
  =========                 |
  \\      /  F ield         | OpenFOAM: The Open Source CFD Toolbox
   \\    /   O peration     | Website:  https://openfoam.org
    \\  /    A nd           | Version:  6
     \\/     M anipulation  |
\*---------------------------------------------------------------------------*/
FoamFile
{
    version     2.0;
    format      ascii;
    class       volScalarField;
    location    "0.1";
    object      nut;
}
// * * * * * * * * * * * * * * * * * * * * * * * * * * * * * * * * * * * * * //

dimensions      [0 2 -1 0 0 0 0];

internalField   nonuniform List<scalar> 
8000
(
0.000237211
0.000573853
0.00153152
0.00250702
0.00284242
0.00234385
0.00141569
0.000742196
0.00038182
0.000217275
0.000169224
0.000236733
0.000469071
0.000874294
0.000874825
0.00072013
0.000721291
0.00109666
0.000886537
0.000684058
0.000653161
0.000742812
0.00101022
0.00144702
0.00190844
0.00229509
0.00250103
0.00254921
0.00246991
0.00226457
0.00197855
0.00144533
0.00110364
0.00084744
0.000673955
0.000579727
0.000558079
0.000597407
0.000666882
0.000735148
0.000782426
0.00080824
0.000817556
0.000814604
0.000808938
0.000803614
0.000804944
0.000807665
0.000833937
0.000860857
0.000949096
0.000866709
0.000839842
0.000861051
0.000922124
0.00104328
0.00126977
0.00167559
0.00234804
0.00329377
0.00443929
0.00563623
0.00683378
0.00797575
0.00917355
0.0102221
0.0112054
0.0121327
0.0131294
0.0139725
0.0148265
0.0155806
0.0162816
0.0170188
0.0178218
0.0183268
0.0190076
0.0195859
0.0200444
0.0204066
0.0206739
0.0209737
0.0213002
0.0216048
0.0217484
0.021845
0.0219444
0.0220348
0.0220906
0.0223712
0.0227484
0.0230303
0.0237874
0.0232538
0.0228542
0.0227522
0.0228422
0.0234745
0.0226646
0.0224637
0.000253421
0.000541634
0.00148003
0.00240579
0.00270275
0.00221757
0.00132506
0.000689855
0.00035951
0.000216926
0.000184822
0.000274218
0.000533848
0.000945503
0.00106634
0.000779347
0.000745679
0.000891707
0.000820867
0.000697531
0.000662828
0.000755546
0.00102909
0.00146914
0.00192093
0.00229773
0.00250166
0.00255081
0.00246525
0.0022028
0.00186067
0.00144572
0.00110987
0.000856703
0.000684894
0.00059152
0.000570622
0.000613146
0.000689222
0.000735086
0.000797051
0.000824394
0.000830304
0.000824597
0.0008185
0.000815431
0.000821058
0.000829994
0.000858089
0.000890603
0.000929086
0.00088573
0.00088664
0.000922732
0.00100091
0.00115365
0.00142124
0.00185493
0.00252378
0.00344038
0.00455514
0.00572041
0.00690094
0.00802784
0.00921009
0.0102553
0.0112341
0.0121569
0.0131567
0.0139944
0.014885
0.0155938
0.0162909
0.0170294
0.0177896
0.0183324
0.0190184
0.0195989
0.0200498
0.020413
0.0206781
0.0209745
0.0213017
0.0216044
0.021748
0.0218464
0.0219447
0.0220345
0.022117
0.022373
0.0227499
0.0230347
0.0237834
0.0232591
0.0228558
0.0227519
0.0228405
0.023464
0.0226603
0.0224634
0.000293462
0.000457492
0.00135441
0.00209666
0.00254289
0.00200996
0.00118691
0.000665345
0.000340816
0.000210369
0.000197631
0.000339521
0.000639923
0.000888641
0.00144787
0.000864921
0.000723902
0.000762381
0.000735353
0.000620737
0.000648714
0.000772381
0.00106605
0.00151449
0.00194996
0.00230021
0.00250165
0.00255324
0.00245941
0.00219907
0.00183955
0.00145103
0.00112136
0.000874395
0.000706268
0.000614907
0.000596654
0.000646624
0.000730721
0.000809652
0.000846128
0.000859693
0.000857675
0.000846505
0.000839591
0.000841613
0.000856881
0.000878362
0.000910265
0.000943069
0.000959952
0.000963969
0.00100586
0.00107224
0.0011866
0.00139822
0.00173235
0.00220491
0.00286369
0.00373396
0.00479478
0.00590063
0.00704644
0.00814128
0.00929484
0.0103283
0.011298
0.0122105
0.0132137
0.0140449
0.0149363
0.0156203
0.0163094
0.0170519
0.0177865
0.0183468
0.0190428
0.0196274
0.0200664
0.0204252
0.0206885
0.0209768
0.0213074
0.0216002
0.0217467
0.0218502
0.021947
0.0220341
0.0221324
0.0223733
0.0227528
0.0230451
0.0237718
0.0232702
0.0228598
0.022751
0.0228365
0.0234386
0.022651
0.0224622
0.000348653
0.000371144
0.00122685
0.00208281
0.00225539
0.00172069
0.000991199
0.000533568
0.000307053
0.000223918
0.000253884
0.000424062
0.000746249
0.000944755
0.00113425
0.000834869
0.000709935
0.000699571
0.000684908
0.000659397
0.000673405
0.000800023
0.00111746
0.00157578
0.00200101
0.00229492
0.00250597
0.00255934
0.00245586
0.00218385
0.00182711
0.00145506
0.0011341
0.00089643
0.000736088
0.000638768
0.000632093
0.000685408
0.00077857
0.000866947
0.000898021
0.000907245
0.0008989
0.000878701
0.000870955
0.000882598
0.000913939
0.00095542
0.000998622
0.00104593
0.00107655
0.00111802
0.00120453
0.00131992
0.00148242
0.00175785
0.00215163
0.00265909
0.00329892
0.00412337
0.00512369
0.0061619
0.00725898
0.00831343
0.00943819
0.0104408
0.0113932
0.0122918
0.0132871
0.0141167
0.0149774
0.0156584
0.0163635
0.0170875
0.0178009
0.0183929
0.0190763
0.019676
0.0200936
0.0204804
0.020704
0.0209798
0.0213194
0.0215889
0.0217653
0.0218566
0.0219504
0.0220326
0.0221425
0.0223736
0.0227569
0.023059
0.0237484
0.0233019
0.022866
0.0227495
0.0228303
0.0234013
0.0226512
0.022461
0.000406166
0.000287961
0.000773152
0.0018099
0.00181066
0.00134197
0.00076347
0.000436069
0.000296317
0.000276991
0.000366477
0.000564556
0.000781999
0.00101444
0.00146856
0.000868037
0.000705623
0.000672369
0.000698174
0.000685855
0.000694913
0.000840082
0.00119103
0.00165599
0.00206441
0.00238453
0.00255483
0.0025719
0.00245043
0.00216935
0.00181813
0.00145892
0.001148
0.000921586
0.000773996
0.000697937
0.000687713
0.00074414
0.000840255
0.000917429
0.000950691
0.000966133
0.000961846
0.000919986
0.000912831
0.000939584
0.000994688
0.00106335
0.00112939
0.00120733
0.00126813
0.00135623
0.00152684
0.00167265
0.00186941
0.00219688
0.00263038
0.00317367
0.00378628
0.00457107
0.00551332
0.00648975
0.00752666
0.00853856
0.00964006
0.0105901
0.0115183
0.0124076
0.0133708
0.0142029
0.0150449
0.0157144
0.016425
0.0171332
0.0178289
0.0184414
0.0191179
0.0197521
0.0201373
0.0205243
0.0207223
0.020983
0.0213378
0.0215796
0.0217745
0.021863
0.021955
0.0220307
0.0221523
0.0223738
0.0227609
0.0230755
0.0237071
0.0233362
0.0228732
0.0227472
0.0228221
0.0233555
0.022644
0.0224587
0.000455579
0.000302936
0.000835578
0.00144232
0.00131819
0.000970462
0.000571571
0.000381755
0.000335417
0.000406592
0.000566111
0.00070413
0.000805187
0.00102145
0.00117149
0.000908333
0.000704596
0.000659909
0.000719176
0.000693114
0.00071675
0.000898611
0.00127711
0.00172688
0.00213683
0.00246031
0.00263064
0.00258568
0.0024451
0.00215351
0.00181046
0.00146243
0.00116363
0.000952018
0.000821563
0.000756542
0.000747151
0.00080079
0.000896276
0.000973116
0.00101546
0.00100994
0.00102323
0.000965047
0.000965756
0.00101243
0.001101
0.00119698
0.00130878
0.00141654
0.00152781
0.00166434
0.00189117
0.0020785
0.00231461
0.00268116
0.00313495
0.00371251
0.00429713
0.00505087
0.00594672
0.0068717
0.00783934
0.00880824
0.00987776
0.01077
0.0116729
0.0125465
0.0134992
0.0143048
0.0151012
0.0157818
0.0164916
0.017189
0.0178693
0.0184943
0.0191671
0.0198633
0.0202014
0.0205592
0.020742
0.0210045
0.0213483
0.0215999
0.0217746
0.0218688
0.021961
0.0220296
0.0221606
0.0223738
0.0227637
0.0230929
0.0236563
0.0233735
0.0228809
0.022744
0.0228121
0.0233035
0.0226318
0.022455
0.000488485
0.000327533
0.00069956
0.00097497
0.000886196
0.000772484
0.000479881
0.000393214
0.000475689
0.000617969
0.000719861
0.000766217
0.000826917
0.000994521
0.00103203
0.000882295
0.000706326
0.000654934
0.000677507
0.000686319
0.000741365
0.000970964
0.0013818
0.00185673
0.00223584
0.00252734
0.00278822
0.00260222
0.00242997
0.00213427
0.00180067
0.00146503
0.00118219
0.000988977
0.00087913
0.000833271
0.000816931
0.00086285
0.000960909
0.00102236
0.00105969
0.00104422
0.0010351
0.0010119
0.00103161
0.001105
0.00122264
0.00136466
0.00153627
0.00170985
0.00185795
0.00203503
0.00229145
0.00253065
0.00280684
0.00319026
0.00365779
0.00422748
0.00481352
0.00554543
0.00641552
0.00728936
0.00819322
0.00911605
0.0101193
0.0109779
0.0118528
0.0127165
0.013631
0.0144149
0.0151735
0.0158632
0.0165665
0.0172549
0.0179219
0.0185535
0.0192185
0.0200075
0.0202779
0.0205897
0.020764
0.0210385
0.0213553
0.0216153
0.0217663
0.021874
0.0219693
0.0220303
0.0221679
0.0223733
0.0227643
0.0231092
0.0236079
0.0234191
0.0228897
0.0227395
0.0228002
0.0232481
0.022616
0.0224498
0.000521031
0.00035865
0.000597484
0.000757429
0.000672783
0.000606483
0.000486233
0.000548168
0.000682174
0.00074942
0.00077242
0.000789011
0.000906951
0.000912072
0.000881703
0.000783026
0.000675529
0.000645948
0.00066983
0.000693667
0.000801216
0.00105445
0.00146751
0.00199892
0.00231694
0.00260474
0.00268376
0.00259875
0.00243757
0.00212666
0.00178424
0.001464
0.00120136
0.00102902
0.000935434
0.000923856
0.00089969
0.000933995
0.00103422
0.00109736
0.00108796
0.00107484
0.00106492
0.00106781
0.00111352
0.00122202
0.00139825
0.0015941
0.00182672
0.00205444
0.00223833
0.00245532
0.00272334
0.00302531
0.00337329
0.00371602
0.00418743
0.00475874
0.00534408
0.00604443
0.0068442
0.00770918
0.00856175
0.00944067
0.0103904
0.0112114
0.0120526
0.0129109
0.0137737
0.0145338
0.0152609
0.015959
0.0166516
0.0173303
0.0179842
0.0186199
0.0192683
0.0201629
0.0203383
0.020624
0.0207915
0.0210685
0.0213614
0.0216253
0.0217565
0.0218786
0.0219806
0.0220398
0.0221748
0.0223727
0.0227619
0.0231229
0.0235656
0.0234715
0.022898
0.0227338
0.0227866
0.0231915
0.0225979
0.0224429
0.000567697
0.000409125
0.000542942
0.000652395
0.000631984
0.000623365
0.000625301
0.000732023
0.000775827
0.000786625
0.00077163
0.000790606
0.00086113
0.000866024
0.000767735
0.000702697
0.000636781
0.000637921
0.000678114
0.000714257
0.000873882
0.00117448
0.00160675
0.00207073
0.00238173
0.00266951
0.00271003
0.00259863
0.00241531
0.00210416
0.00177851
0.00146877
0.00122266
0.00106442
0.0010038
0.000973404
0.000980849
0.00101068
0.00109773
0.00118639
0.00111499
0.00109646
0.00110286
0.00114045
0.00122002
0.00137782
0.00160793
0.00186822
0.00217124
0.00243729
0.00265715
0.00289998
0.00319794
0.00350849
0.00399072
0.00424502
0.00472553
0.00528159
0.00586871
0.00654474
0.00728774
0.00815108
0.00895378
0.00978537
0.0106714
0.0114574
0.0122681
0.0131197
0.0139254
0.0146848
0.0153973
0.0160714
0.0167468
0.0174129
0.0180671
0.0186921
0.0193237
0.0202975
0.0203648
0.0206697
0.0208235
0.0210936
0.0213721
0.0216341
0.0217568
0.0218851
0.0219969
0.022049
0.0221809
0.0223724
0.0227566
0.0231331
0.0235217
0.023527
0.0229052
0.0227266
0.0227713
0.0231359
0.0225785
0.022434
0.000608926
0.000468907
0.000554136
0.000664523
0.000723062
0.000763434
0.000741256
0.000769083
0.000747266
0.00071685
0.000747035
0.000775847
0.000859199
0.000823077
0.000729417
0.000673045
0.000636965
0.000632817
0.000661342
0.000747115
0.000942662
0.00128839
0.00174386
0.00217091
0.00248589
0.00275203
0.00273571
0.0025921
0.00239427
0.00208861
0.0017706
0.00147502
0.001229
0.00108393
0.00107525
0.00102189
0.00103556
0.00109314
0.00114756
0.00118818
0.00114369
0.00113043
0.00115974
0.00123962
0.00136485
0.00157221
0.00186093
0.0021715
0.00255017
0.00284835
0.00311741
0.00337168
0.00367926
0.00398096
0.00448523
0.00477068
0.00523703
0.00577557
0.00637921
0.00703867
0.00776267
0.00857982
0.00935598
0.0101458
0.0109752
0.0117121
0.0124949
0.0133297
0.0140992
0.0148457
0.015542
0.0161947
0.0168508
0.0175035
0.0181575
0.0187688
0.0193809
0.0203353
0.0204082
0.0207177
0.0208702
0.0211357
0.0213871
0.0216445
0.0217656
0.0218917
0.0220193
0.0220574
0.0221868
0.022374
0.0227488
0.0231407
0.0234689
0.0235821
0.0229105
0.0227177
0.0227543
0.0230827
0.0225582
0.0224229
0.000603604
0.000532862
0.000606624
0.000747422
0.000790911
0.000737876
0.000715547
0.000679258
0.000650054
0.000631593
0.000655712
0.000726602
0.00080231
0.000826507
0.000737301
0.000665055
0.000634378
0.000625884
0.000663225
0.000795353
0.00103863
0.00141179
0.00187572
0.00227732
0.00258046
0.00278907
0.00274623
0.00257684
0.00235522
0.00206089
0.0017601
0.00148159
0.00125817
0.00112889
0.00108098
0.00105283
0.00108219
0.00116152
0.00123673
0.00123071
0.00118077
0.00118905
0.0012439
0.00137268
0.00155393
0.00180539
0.00215469
0.00249898
0.00291679
0.00328906
0.00366861
0.00385965
0.00414744
0.0044609
0.00497662
0.00527431
0.00573923
0.00629811
0.0068896
0.00752207
0.00825675
0.00901198
0.00975333
0.010496
0.0113028
0.0119887
0.0127305
0.0135352
0.0142983
0.0150088
0.01569
0.0163266
0.0169619
0.0176009
0.0182508
0.0188469
0.0194446
0.0203123
0.0204302
0.0207669
0.0209117
0.0211725
0.0214048
0.0216577
0.0217688
0.0218967
0.0220457
0.0220648
0.0221945
0.0223793
0.0227395
0.023147
0.0234085
0.0236326
0.0229127
0.0227069
0.0227355
0.0230326
0.022539
0.0224094
0.000497731
0.000530393
0.000632395
0.000712949
0.0006787
0.000582055
0.000590508
0.000553573
0.000531822
0.000529033
0.000567023
0.000686386
0.000807832
0.00079956
0.000726099
0.000641614
0.000610489
0.00061055
0.00065567
0.000854008
0.00113256
0.00152852
0.00199005
0.0023693
0.00266677
0.00283749
0.00273066
0.00254953
0.00231184
0.00201972
0.00174544
0.00149565
0.00129029
0.00116403
0.0011001
0.00109391
0.00112991
0.00121622
0.00133004
0.00128522
0.00124179
0.00129334
0.0013615
0.00154097
0.00178414
0.00206999
0.00250562
0.00290469
0.00330113
0.00371524
0.00427718
0.00430601
0.00458055
0.00491016
0.00545238
0.00576659
0.00625534
0.00685999
0.00738451
0.0080031
0.0087374
0.0094297
0.0101453
0.0108416
0.0116257
0.0122658
0.0129602
0.0137348
0.0144958
0.0151845
0.0158434
0.0164648
0.0170785
0.0177038
0.0183449
0.0189269
0.0195144
0.0202368
0.0204643
0.0208277
0.0209545
0.0212053
0.0214258
0.0216711
0.0217676
0.0219002
0.0220691
0.0220712
0.0222081
0.0224054
0.0227307
0.0231527
0.0233452
0.0236735
0.0229107
0.0226941
0.0227149
0.0229855
0.022519
0.0223933
0.000292099
0.000380411
0.000499781
0.000532513
0.000472668
0.000431893
0.000442866
0.00043015
0.000421392
0.000440821
0.000511859
0.00067788
0.000808912
0.00086568
0.000690845
0.000613095
0.000584289
0.000594461
0.000677267
0.000913724
0.00123189
0.0016436
0.00209477
0.00245535
0.00271753
0.0029445
0.00276417
0.0025433
0.00224863
0.0019891
0.00173033
0.00153108
0.00131772
0.00119687
0.00112984
0.00112452
0.00116572
0.0012418
0.0013264
0.00133418
0.00130505
0.00142141
0.00150926
0.001747
0.00202283
0.00234605
0.00285242
0.00347651
0.00368573
0.00408529
0.00464854
0.00472774
0.00502919
0.00538203
0.00591346
0.00621926
0.0067286
0.00737821
0.00786415
0.00847994
0.00919616
0.009842
0.010518
0.011186
0.0119215
0.0125301
0.0131905
0.0139496
0.0146915
0.0153616
0.0159974
0.0166072
0.0171988
0.0178106
0.0184383
0.0190079
0.0195928
0.020203
0.0204522
0.0208931
0.0209908
0.0212342
0.0214507
0.0216812
0.0217648
0.0219026
0.0220801
0.0220765
0.0222386
0.0224716
0.0227213
0.0231608
0.0232839
0.0237006
0.0229036
0.022679
0.0226924
0.0229423
0.0224978
0.0223744
0.000192671
0.00026806
0.000354957
0.000406801
0.00039614
0.000361918
0.000361635
0.000355795
0.000346236
0.000344496
0.000438951
0.000576717
0.000782223
0.000831299
0.000664018
0.000596192
0.000569286
0.000589751
0.000710517
0.00100316
0.00134104
0.00174857
0.00218548
0.00254864
0.00276635
0.00287341
0.0027655
0.0025122
0.00223374
0.00196232
0.00171377
0.00158698
0.00134058
0.00121186
0.00115727
0.00115196
0.0011976
0.00127103
0.00135473
0.00137323
0.00139427
0.00150837
0.00169285
0.00199742
0.00229114
0.00265022
0.00314768
0.0036556
0.00407089
0.00448863
0.00495262
0.00514366
0.00548051
0.00582517
0.00634209
0.00667275
0.00718078
0.00781691
0.00833389
0.00896557
0.00963378
0.0102487
0.010875
0.0115158
0.0122218
0.012784
0.0134281
0.0141626
0.01488
0.0155331
0.0161504
0.016752
0.017321
0.0179195
0.0185302
0.0190885
0.0196851
0.0202225
0.0204866
0.0209639
0.0210242
0.0212649
0.0214799
0.0216869
0.0217625
0.0219034
0.0220807
0.0220808
0.0223017
0.0226207
0.022719
0.0231662
0.0232258
0.0237103
0.0228906
0.0226617
0.0226677
0.0228998
0.0224749
0.0223526
0.00023628
0.000254501
0.000304109
0.000350765
0.000323197
0.000317771
0.000315309
0.000303167
0.000277318
0.000316171
0.000363357
0.000523134
0.000693192
0.000788826
0.000642142
0.000583026
0.000562457
0.000595787
0.000767786
0.0010858
0.0014534
0.00188879
0.00237323
0.00266354
0.00281919
0.00287109
0.00277227
0.00248175
0.00220324
0.00193238
0.00171649
0.00152884
0.00133409
0.00121377
0.00118049
0.00117191
0.00123567
0.00127995
0.00139431
0.00145611
0.00150015
0.00163774
0.00190911
0.00231462
0.00264696
0.00299234
0.00352168
0.004008
0.00446895
0.00489443
0.00531576
0.00555894
0.00591278
0.00626498
0.0067657
0.00711992
0.00763511
0.00825689
0.00873672
0.00950831
0.0100393
0.0106336
0.0112284
0.0118366
0.0124944
0.0130234
0.0136588
0.0143596
0.0150556
0.0156974
0.0163013
0.0168973
0.0174433
0.0180284
0.0186205
0.0191658
0.0197842
0.0203587
0.0205304
0.0210639
0.0210565
0.0212931
0.0215079
0.0216972
0.0217621
0.0219069
0.0220903
0.0220843
0.0223925
0.0228855
0.0227137
0.0231642
0.0231713
0.0237012
0.0228716
0.022642
0.0226409
0.0228567
0.0224499
0.0223278
0.000217767
0.000242628
0.000275285
0.000287449
0.000293091
0.000292448
0.000290406
0.000267391
0.000256863
0.000275697
0.00031915
0.000446937
0.000597259
0.000752808
0.000641881
0.000567597
0.000562454
0.000642033
0.000867026
0.0012125
0.00162383
0.00205895
0.00248267
0.0027836
0.00284885
0.00287494
0.00283487
0.00246448
0.00217443
0.00189005
0.00172798
0.00149213
0.0013085
0.00121283
0.00118719
0.00118917
0.00127461
0.00132075
0.00142333
0.00159649
0.00165697
0.00183414
0.00218184
0.00272807
0.00314894
0.00341551
0.00395632
0.00445169
0.00494504
0.00537645
0.00578526
0.00605706
0.00642414
0.00679523
0.00725969
0.00763644
0.0081661
0.00878344
0.00925797
0.0098799
0.0104759
0.0110989
0.0116197
0.0121952
0.0127875
0.0132946
0.0139154
0.0145775
0.0152593
0.0158884
0.0164779
0.0170687
0.0175873
0.0181563
0.018725
0.0192521
0.0198611
0.0207307
0.020585
0.0211256
0.0210884
0.0213212
0.0215363
0.0217073
0.0217622
0.0219089
0.0220868
0.0220846
0.0224705
0.0232156
0.0227041
0.023151
0.0231096
0.0236691
0.0228425
0.0226158
0.0226061
0.0228023
0.0224167
0.0222946
9.86556e-05
0.000226754
0.000260994
0.000279302
0.000294881
0.000306441
0.000297077
0.000268672
0.000260364
0.000265836
0.000291182
0.000386897
0.000504457
0.000671394
0.00059921
0.000564637
0.000582838
0.000717626
0.00101041
0.00138068
0.0018413
0.00227322
0.00264912
0.00286517
0.00289526
0.00294289
0.00271283
0.00241302
0.00221626
0.00184639
0.00163359
0.00142422
0.00126956
0.00120319
0.0011901
0.0012103
0.00128593
0.00136907
0.00147762
0.00167975
0.00189457
0.00210043
0.00250664
0.00300346
0.0034591
0.00389291
0.00446392
0.00498891
0.00549269
0.00593198
0.00630583
0.00660696
0.00697775
0.00734159
0.00779383
0.00819178
0.00870029
0.00935353
0.00979088
0.0103581
0.010925
0.0118094
0.0120029
0.0125532
0.0130949
0.0135825
0.0141804
0.0148123
0.0154823
0.0160941
0.0166731
0.017257
0.0177458
0.0182943
0.0188479
0.0193492
0.0199168
0.0203696
0.020639
0.0211335
0.0211208
0.0213438
0.0215521
0.0217005
0.0217586
0.0219113
0.022067
0.0220807
0.0224672
0.0230137
0.0226855
0.0231202
0.0230414
0.0236067
0.0228013
0.0225815
0.0225616
0.0227328
0.0223721
0.0222508
4.74178e-05
0.000191676
0.00025164
0.000279819
0.000307887
0.000328968
0.000323388
0.000305709
0.00029214
0.000284891
0.000290368
0.000354782
0.000455842
0.000571274
0.000568355
0.000560329
0.000635837
0.000835557
0.00114952
0.00154819
0.00212272
0.0024808
0.00281857
0.00293535
0.00299644
0.00288585
0.00266573
0.00235758
0.00213845
0.00177387
0.00163327
0.00138683
0.00124249
0.00119783
0.0012209
0.0012233
0.0013131
0.0014134
0.0015605
0.00182387
0.00211084
0.00245234
0.00289597
0.00346828
0.00388262
0.00439844
0.00498122
0.0055036
0.00601522
0.00643929
0.00679906
0.00713198
0.00749467
0.00785975
0.00830084
0.00868602
0.00919099
0.00983444
0.0102493
0.0107942
0.0113313
0.0118968
0.0123272
0.0128682
0.0133627
0.0138419
0.0144175
0.0150309
0.015681
0.0162814
0.0168553
0.0174279
0.0178933
0.0184224
0.0189622
0.0194425
0.0199737
0.0203692
0.0206871
0.0210674
0.0211465
0.0213583
0.0215522
0.021682
0.0217514
0.021908
0.0220471
0.0220734
0.0224724
0.0228679
0.0226567
0.0230741
0.0229751
0.0235328
0.0227565
0.0225435
0.022513
0.0226547
0.0223207
0.0222018
5.96284e-05
0.00013328
0.000221728
0.000275094
0.000315538
0.000345092
0.000359452
0.000360596
0.000349365
0.000333444
0.00032189
0.000345758
0.000423056
0.000511906
0.000550592
0.000593292
0.000725921
0.00100462
0.00134822
0.001798
0.00232787
0.00270955
0.002973
0.00303181
0.00301718
0.00288448
0.00262532
0.00233034
0.00200754
0.00172215
0.00152984
0.00133338
0.00123047
0.00119971
0.00120873
0.00125238
0.00137511
0.00151639
0.00168323
0.00202211
0.00244814
0.00284262
0.00330348
0.00387436
0.00434377
0.00491662
0.00547001
0.00598417
0.006492
0.00689756
0.00726092
0.0075914
0.00794476
0.00832462
0.00875633
0.00913216
0.00964051
0.0102198
0.0106481
0.011179
0.011711
0.0121886
0.0126132
0.0131252
0.0136155
0.0140754
0.0146287
0.0152268
0.0158604
0.0164663
0.0170207
0.0175744
0.0180273
0.0185386
0.0190593
0.0195197
0.0200208
0.0203842
0.0207226
0.0210164
0.0211658
0.0213612
0.0215557
0.0216632
0.0217397
0.0218968
0.0220284
0.022063
0.0224504
0.0227107
0.022624
0.0230191
0.0229126
0.0234575
0.0227111
0.0225022
0.0224602
0.0225677
0.0222626
0.022148
0.000122274
8.40069e-05
0.000173584
0.000249882
0.000304004
0.000345806
0.000392118
0.000425901
0.000433427
0.000419462
0.00039303
0.000400979
0.000428511
0.000492476
0.000558342
0.00066525
0.000865802
0.00119931
0.00163373
0.00210681
0.00260524
0.00298802
0.00310561
0.00313782
0.00306687
0.00290688
0.00257342
0.00236196
0.0019746
0.00169247
0.00150116
0.00133591
0.00126582
0.00123546
0.00125385
0.00130495
0.00143909
0.0016644
0.00188064
0.00230068
0.00283275
0.00327141
0.0037863
0.00431206
0.00481621
0.00537841
0.00595236
0.00643114
0.00691687
0.00730446
0.00766694
0.00797797
0.00833431
0.00874922
0.00914842
0.00952513
0.0100269
0.010536
0.0109909
0.0115061
0.012009
0.0124465
0.012858
0.0133643
0.0138359
0.0142764
0.0148146
0.0154002
0.0160203
0.0166313
0.0171723
0.0177019
0.0181456
0.0186403
0.0191377
0.0195836
0.0200541
0.0203975
0.0207418
0.0209989
0.0211773
0.0213524
0.0215489
0.0216396
0.0217218
0.0218771
0.0220076
0.0220486
0.0224066
0.0225172
0.0225829
0.0229602
0.0228511
0.0233861
0.0226656
0.0224575
0.0224034
0.0224732
0.0221987
0.0220897
0.000229875
7.6581e-05
0.000126969
0.000207234
0.000270212
0.000329935
0.000416608
0.000499612
0.000545913
0.000548808
0.00051486
0.000489383
0.000477736
0.000526377
0.000618923
0.000783915
0.00108193
0.00152497
0.00197629
0.0024249
0.00285548
0.00311744
0.00322563
0.00322058
0.00310802
0.00293583
0.00259857
0.0022908
0.00196574
0.00171158
0.0015319
0.00138704
0.00132188
0.00130671
0.00133844
0.00141478
0.00158204
0.00187109
0.00215157
0.00264935
0.00326575
0.00369213
0.0042835
0.00476731
0.00528427
0.00581738
0.00636996
0.00682259
0.00729185
0.00765883
0.00802024
0.00831999
0.00867758
0.00896374
0.00950088
0.00986418
0.0103423
0.0108226
0.0112953
0.0117823
0.0122501
0.0126729
0.0130657
0.0135669
0.0140086
0.0144453
0.0149748
0.0155498
0.0161554
0.0167716
0.0173066
0.0178145
0.0182455
0.0187246
0.0191984
0.0196341
0.0200875
0.0204093
0.0207468
0.0209898
0.0211704
0.0213265
0.0215402
0.0216124
0.0216971
0.021849
0.0219865
0.0220296
0.0223627
0.0224004
0.0225363
0.0229027
0.0227902
0.0233128
0.0226218
0.0224088
0.0223427
0.0223739
0.0221299
0.0220276
0.000343312
0.000123577
0.000106328
0.000165418
0.000228896
0.000306225
0.000431125
0.000575121
0.000683321
0.000725418
0.000701409
0.000642142
0.000611275
0.000655881
0.000768776
0.000999708
0.00141012
0.00187105
0.00236145
0.0027621
0.00308955
0.00324149
0.00332747
0.00327683
0.00313455
0.00300454
0.00260808
0.00230743
0.00200763
0.00178525
0.00163085
0.00150363
0.00147252
0.00146024
0.00150601
0.00160125
0.0018199
0.00211122
0.00250216
0.00303934
0.00363944
0.00420033
0.00468807
0.005205
0.00572257
0.00621944
0.006732
0.00717003
0.00760907
0.00795864
0.00831935
0.00859918
0.00894715
0.00949491
0.00978294
0.0101413
0.0106017
0.0110709
0.0115482
0.0120387
0.0124455
0.0128633
0.0132358
0.0137161
0.0141489
0.0145881
0.0151084
0.0156747
0.016266
0.0168863
0.0174174
0.0178991
0.0183243
0.0187893
0.0192424
0.0196739
0.0201064
0.0204092
0.0207366
0.0209717
0.0211445
0.0212907
0.0215201
0.0215766
0.0216646
0.021813
0.0219577
0.0220092
0.0223268
0.0223289
0.0224849
0.022841
0.0227268
0.0232282
0.0225719
0.0223554
0.0222782
0.0222745
0.0220576
0.0219621
0.000420404
0.000221039
0.000129825
0.000151473
0.000207687
0.000291792
0.000435982
0.000641703
0.000832862
0.000941941
0.000952774
0.000887864
0.000845019
0.000885837
0.00104481
0.00134651
0.00180522
0.00232728
0.00269253
0.00310225
0.00330073
0.00339359
0.00339976
0.00330797
0.00314394
0.00299039
0.00258084
0.00236046
0.00209571
0.0019259
0.00181368
0.0017282
0.00170364
0.00170841
0.00176433
0.00188534
0.00212771
0.00246101
0.00290015
0.0034587
0.00406379
0.0046511
0.00507844
0.00561303
0.00610771
0.00655924
0.0070187
0.00745977
0.00786498
0.00820256
0.0085707
0.00882367
0.00916138
0.00958515
0.00999774
0.0103708
0.0108094
0.0112634
0.0117697
0.0122157
0.0125886
0.0130155
0.0133645
0.0138216
0.0142555
0.0147004
0.0152149
0.015774
0.0163528
0.0169757
0.0175101
0.0179603
0.0183795
0.0188325
0.0192689
0.0196918
0.0201019
0.0203932
0.02071
0.0209364
0.0211117
0.0212578
0.0214744
0.0215283
0.0216233
0.0217698
0.0219222
0.021983
0.0222765
0.0222736
0.0224285
0.0227717
0.0226586
0.0231229
0.0225121
0.0222967
0.0222098
0.0221754
0.0219823
0.0218932
0.000442603
0.000306488
0.000205521
0.000188972
0.000227773
0.000289406
0.00042785
0.000685571
0.000971954
0.00117327
0.00124925
0.00122571
0.00119195
0.00125076
0.00143597
0.0018221
0.0022475
0.00274262
0.00303361
0.00343901
0.00348083
0.003498
0.00345412
0.00330488
0.00316055
0.00291001
0.00263338
0.00241404
0.00224305
0.00214424
0.00208702
0.00203333
0.00202499
0.00204092
0.00210076
0.00224352
0.00249021
0.00287657
0.00328815
0.00395924
0.00452613
0.00506305
0.00547793
0.00597618
0.00642118
0.00683597
0.00725167
0.00769456
0.0080575
0.00838099
0.00875514
0.00899372
0.00932453
0.009705
0.010158
0.010546
0.0109666
0.0114064
0.0119359
0.0123416
0.0126947
0.0131221
0.0134497
0.0138899
0.0143283
0.0147829
0.0152943
0.0158475
0.0164156
0.0170388
0.0175782
0.017994
0.0184103
0.018853
0.0192758
0.0196877
0.0200751
0.0203598
0.0206664
0.0208845
0.0210618
0.0212224
0.0214063
0.0214683
0.0215744
0.0217202
0.0218806
0.0219501
0.0222064
0.022221
0.0223675
0.0226915
0.0225838
0.0229927
0.0224406
0.0222322
0.0221376
0.0220776
0.0219048
0.0218211
0.000412324
0.000324329
0.000285124
0.000269086
0.00027551
0.000284874
0.000402084
0.000694769
0.0010748
0.00138593
0.00155381
0.00159965
0.00161024
0.00170442
0.00191959
0.00234283
0.00268939
0.00308842
0.00334088
0.00356639
0.00360651
0.00357662
0.00347921
0.00331526
0.00315249
0.00291927
0.00270552
0.00254453
0.00246107
0.00242219
0.00241627
0.00239792
0.00240698
0.00242635
0.00248131
0.00264713
0.00289179
0.00327086
0.00370723
0.00435876
0.00493211
0.00543358
0.00582431
0.00629741
0.00666408
0.00704052
0.00744119
0.00786446
0.00819419
0.00851463
0.0088815
0.00911636
0.00944171
0.00981791
0.0102712
0.0106757
0.0110737
0.0115027
0.012043
0.0123864
0.0127555
0.0131732
0.0134897
0.0139336
0.0143772
0.0148378
0.0153468
0.015895
0.0164542
0.0170751
0.0176136
0.0180023
0.0184169
0.0188504
0.0192617
0.0196625
0.0200282
0.0203088
0.0206055
0.0208169
0.0209931
0.0211649
0.0213449
0.0214023
0.0215171
0.0216642
0.0218308
0.0219098
0.0221257
0.0221654
0.022302
0.0225994
0.0225017
0.0228404
0.0223582
0.0221619
0.0220615
0.0219814
0.021825
0.0217459
0.000349716
0.000294865
0.000303915
0.000320265
0.000306626
0.000269412
0.000356888
0.000663847
0.00112129
0.0015495
0.00182677
0.00196025
0.00203881
0.00218027
0.00242945
0.00279374
0.00309273
0.00336223
0.00355797
0.00369537
0.00368727
0.00361333
0.00347765
0.00330731
0.00314293
0.00295503
0.0028146
0.00271616
0.00270423
0.00272341
0.00275244
0.00276551
0.00278914
0.0028171
0.00288041
0.00304134
0.00329183
0.00365437
0.00410444
0.00471076
0.0052984
0.00575999
0.00612049
0.00649376
0.0068489
0.00718903
0.00757517
0.0079617
0.00827512
0.00860151
0.00893441
0.00918474
0.00951261
0.0098891
0.0103431
0.0107537
0.0111311
0.0115532
0.0120938
0.0123891
0.0127781
0.0131778
0.0134982
0.0139551
0.0143989
0.0148654
0.0153731
0.0159168
0.0164681
0.017085
0.0176135
0.0179852
0.0183997
0.0188245
0.0192259
0.0196163
0.0199627
0.02024
0.0205278
0.0207348
0.0209084
0.0210923
0.0212597
0.0213274
0.0214549
0.0216019
0.0217726
0.0218614
0.0220436
0.0221052
0.0222321
0.0224965
0.0224124
0.0226746
0.0222669
0.0220858
0.0219813
0.0218864
0.0217428
0.0216675
0.000283229
0.000259273
0.00028294
0.000314084
0.000301419
0.00024178
0.000294859
0.000592711
0.00110026
0.0016391
0.00203365
0.00226574
0.00242095
0.00260613
0.00286281
0.00315664
0.00339035
0.00357368
0.00369905
0.00376113
0.00371181
0.00360147
0.00344597
0.0032751
0.00313707
0.00300165
0.00293099
0.00292261
0.00296429
0.00301514
0.00307478
0.00311279
0.00314663
0.00318212
0.00324992
0.0034112
0.00365674
0.00399486
0.0044433
0.00500954
0.00560846
0.00601201
0.00636543
0.0066374
0.00696162
0.00727735
0.00764516
0.00802104
0.00832006
0.00863783
0.00894307
0.00920817
0.0095396
0.0099178
0.0103705
0.0107796
0.011141
0.0115549
0.0121037
0.0123747
0.01276
0.013164
0.0134906
0.013951
0.0143954
0.014867
0.0153738
0.0159132
0.0164572
0.0170707
0.0175798
0.017944
0.018359
0.0187754
0.019168
0.0195484
0.019879
0.0201533
0.0204337
0.0206388
0.0208117
0.0210057
0.0211533
0.0212439
0.0213836
0.0215328
0.0217059
0.0218071
0.0219623
0.02204
0.0221574
0.0223855
0.0223169
0.0225052
0.0221695
0.0220041
0.0218969
0.0217917
0.0216581
0.0215859
0.000233458
0.000231298
0.000249196
0.000274996
0.000266092
0.000204714
0.000224431
0.000487527
0.00100827
0.00163517
0.00214524
0.00247953
0.00271128
0.00293092
0.00317385
0.00340124
0.00356882
0.00368262
0.00374379
0.00375032
0.00366819
0.00353415
0.00337331
0.00321693
0.00311712
0.00305015
0.00304013
0.00310792
0.00320238
0.0032894
0.0033665
0.00341695
0.00345835
0.00349895
0.00356733
0.00372276
0.00396272