/*--------------------------------*- C++ -*----------------------------------*\
  =========                 |
  \\      /  F ield         | OpenFOAM: The Open Source CFD Toolbox
   \\    /   O peration     | Website:  https://openfoam.org
    \\  /    A nd           | Version:  6
     \\/     M anipulation  |
\*---------------------------------------------------------------------------*/
FoamFile
{
    version     2.0;
    format      ascii;
    class       volScalarField;
    location    "0.1";
    object      O;
}
// * * * * * * * * * * * * * * * * * * * * * * * * * * * * * * * * * * * * * //

dimensions      [0 0 0 0 0 0 0];

internalField   nonuniform List<scalar> 
8000
(
5.26646e-08
2.24518e-05
0.000141102
0.000286234
0.000247394
0.000270596
0.000213294
0.000104038
3.29723e-05
5.18693e-06
5.17533e-07
1.68424e-07
5.90374e-07
2.61811e-05
1.92016e-05
1.56475e-05
0.000256239
6.80707e-05
0.00051742
0.000236726
0.000274685
0.000472312
0.000662215
0.000404626
9.77607e-05
3.05703e-05
2.27198e-05
3.12994e-05
5.53991e-05
4.19496e-05
7.17421e-05
0.000236348
0.000411782
0.000508184
0.000525439
0.000505882
0.000482129
0.000479431
0.000494924
0.000463868
0.000471816
0.000462411
0.00045811
0.000432118
0.000346862
0.000199231
7.88687e-05
2.39912e-05
7.90319e-06
1.95388e-05
1.16543e-06
7.99913e-07
7.35482e-07
6.71369e-07
5.67091e-07
4.43492e-07
3.41388e-07
2.67771e-07
2.08898e-07
1.5587e-07
2.09159e-07
5.33103e-07
1.24376e-06
5.18339e-06
1.24741e-05
1.97006e-05
3.71314e-05
3.94277e-05
5.08346e-05
5.91157e-05
0.000101725
8.32347e-05
8.10631e-05
0.000145803
0.000143538
7.513e-05
7.55948e-05
6.90707e-05
5.86366e-05
5.37346e-05
6.23365e-05
6.36124e-05
7.64952e-05
0.000149904
0.000187168
0.000238174
0.000283
0.000323942
0.000411778
0.000403158
0.000440821
0.000474244
0.00050122
0.000517485
0.000536631
0.000545893
0.000547685
0.000548272
0.000546995
0.000532881
4.3196e-08
2.61925e-05
0.00015864
0.000285196
0.000223959
0.000270874
0.000204654
9.9879e-05
2.98234e-05
4.06492e-06
3.97395e-07
2.09032e-07
1.43058e-06
0.000133049
0.000106412
3.47283e-05
7.73236e-05
0.000237416
0.00028782
0.000301163
0.000338143
0.000509315
0.000652971
0.000378208
8.8018e-05
2.74936e-05
2.0572e-05
2.97612e-05
5.57304e-05
8.99881e-05
0.000151617
0.000269252
0.000417357
0.000498148
0.000514357
0.000502911
0.000485045
0.000479809
0.000489164
0.000316972
0.000459805
0.000455888
0.000448366
0.000417142
0.000329873
0.000185366
7.23777e-05
2.13892e-05
7.28655e-06
3.46689e-06
1.26193e-06
9.31127e-07
7.03353e-07
6.38816e-07
5.42778e-07
4.28026e-07
3.31779e-07
2.60798e-07
2.03388e-07
1.50937e-07
2.39402e-07
5.91718e-07
1.33112e-06
5.60079e-06
1.29114e-05
2.06934e-05
3.84653e-05
4.03843e-05
5.16907e-05
6.04077e-05
6.56039e-05
8.46284e-05
8.15364e-05
0.00014729
0.000144756
7.55279e-05
7.64034e-05
6.96624e-05
5.93486e-05
5.37258e-05
6.28707e-05
6.38433e-05
7.71615e-05
0.000150785
0.000187195
0.000238889
0.000283679
0.000324469
0.000358469
0.000403568
0.000441051
0.000474411
0.000501301
0.000517462
0.000536537
0.000545809
0.000547518
0.000548094
0.000546867
0.00053261
6.31265e-08
4.7432e-05
0.000184587
0.000299191
0.000253093
0.000237328
0.000150254
0.000129524
7.74548e-05
3.90865e-06
2.33431e-06
2.36545e-07
2.93919e-06
0.000471563
0.000388176
0.000112959
4.06284e-05
7.65473e-05
0.000614751
0.000427906
0.000614628
0.000603138
0.000628049
0.000325219
7.00269e-05
2.03806e-05
1.69692e-05
2.64267e-05
5.24569e-05
0.000101154
0.000165842
0.00028318
0.000410458
0.000473486
0.000482031
0.00047773
0.000478551
0.000468456
0.000463082
0.000448173
0.000444368
0.000435745
0.000426388
0.000385407
0.000294887
0.000157456
5.88278e-05
1.60323e-05
5.92245e-06
2.53466e-06
1.21413e-06
7.98654e-07
5.91825e-07
5.60266e-07
4.94886e-07
3.9793e-07
3.11027e-07
2.45539e-07
1.91671e-07
1.80595e-07
3.10542e-07
7.25458e-07
1.52551e-06
6.86264e-06
1.49617e-05
2.28645e-05
3.6186e-05
4.25754e-05
5.3501e-05
6.31376e-05
7.00073e-05
8.7274e-05
0.000166023
0.000150613
0.0001474
0.000144092
7.81895e-05
7.09589e-05
6.08975e-05
9.23313e-05
6.40703e-05
6.43375e-05
7.86753e-05
0.000152605
0.000245375
0.000240482
0.000285122
0.000325602
0.000362335
0.00040439
0.000441549
0.000474774
0.000626232
0.000643679
0.00053633
0.000545619
0.000547153
0.000547704
0.000646456
0.000532014
1.549e-07
9.02791e-05
0.000235576
0.000284045
0.000234626
0.000172908
9.59105e-05
4.08888e-05
8.32342e-06
6.36733e-07
6.35677e-08
7.5288e-08
9.60253e-07
0.000242125
1.56486e-05
0.000214199
2.62506e-05
3.70278e-05
0.000337246
0.000504739
0.000474355
0.000596037
0.000575672
0.000249136
5.24381e-05
4.51376e-06
1.36362e-05
2.23298e-05
4.60954e-05
9.01269e-05
0.000160015
0.000274424
0.000384625
0.000434853
0.000423803
0.000327629
0.000432238
0.000398034
0.000425748
0.000416833
0.000414338
0.000403943
0.000387773
0.00033774
0.000232989
0.000110716
4.21837e-05
1.19005e-05
4.79515e-06
2.16636e-06
1.04312e-06
6.21668e-07
5.30724e-08
4.74664e-07
4.41698e-07
3.60459e-07
2.80987e-07
2.23783e-07
1.84039e-07
2.39443e-07
4.25635e-07
8.54021e-07
1.82996e-06
9.17e-06
1.7965e-05
2.62158e-05
4.01296e-05
4.61445e-05
5.60282e-05
6.70353e-05
0.000136305
0.000145621
0.00014487
0.000155873
0.000151347
8.29119e-05
8.09422e-05
7.29116e-05
6.32204e-05
5.92994e-05
6.59681e-05
6.50502e-05
8.11019e-05
0.000155072
0.000194342
0.000242975
0.000287285
0.000327287
0.000365491
0.000405569
0.000442296
0.000475312
0.000501725
0.000519282
0.000536023
0.000545321
0.000546595
0.000547111
0.000544058
0.000531093
1.07855e-07
0.000217295
1.82749e-05
0.000306252
0.000221711
0.000125461
5.34156e-05
1.3528e-05
1.49872e-06
8.3354e-08
5.34123e-08
2.83296e-09
3.62247e-09
0.000140038
0.000249852
5.28157e-05
1.40018e-05
2.57546e-05
0.000152888
0.000286591
0.000429328
0.0006031
0.000477028
0.000171606
4.18173e-05
1.54443e-05
1.46205e-05
1.92016e-05
3.63272e-05
7.37161e-05
0.000138804
0.000244183
0.000341759
0.000389756
0.000401483
0.00040803
0.000420809
0.000410778
0.000386341
0.000308619
0.00036356
0.000343884
0.00032417
0.000265147
0.000174919
7.23957e-05
2.25182e-05
7.65683e-06
3.58814e-06
1.63202e-06
8.81931e-07
6.24322e-07
5.20835e-07
4.44202e-07
3.97369e-07
3.19663e-07
2.44227e-07
1.99634e-07
2.55829e-07
3.50405e-07
5.95562e-07
1.10688e-06
3.28099e-06
1.21393e-05
2.11132e-05
3.78791e-05
4.55072e-05
5.14891e-05
0.000100643
7.19163e-05
7.97094e-05
0.000153468
0.000156562
0.000162646
0.000156478
8.88267e-05
8.44911e-05
7.54971e-05
6.62266e-05
6.38022e-05
6.84301e-05
0.00012159
8.45485e-05
0.000197865
0.000200032
0.000246219
0.00029015
0.000329506
0.000368728
0.000407078
0.000443281
0.000476011
0.000502062
0.000520822
0.000535618
0.000544889
0.000545844
0.000546324
0.000542144
0.000529896
4.15687e-08
9.88758e-05
0.000242043
0.000307785
0.0001532
7.56638e-05
2.20645e-05
3.37821e-05
2.40524e-07
1.67996e-08
7.79183e-09
2.03726e-08
1.20088e-07
3.04511e-05
4.91363e-05
9.53598e-07
1.90234e-06
2.14283e-06
2.20588e-05
0.000249407
0.000477839
0.000607887
0.000285452
8.85999e-05
3.10804e-05
1.57998e-05
1.46164e-05
1.76179e-05
2.62125e-05
5.54531e-05
0.000110587
0.00020108
0.000273854
0.000334529
0.000359829
0.000377151
0.000384379
0.000373312
0.000345727
0.000298982
0.000292084
0.000234402
0.0002603
0.000196281
0.000111281
4.0939e-05
1.14579e-05
5.23788e-06
2.76078e-06
6.48908e-07
7.80944e-07
5.97874e-07
7.89258e-08
3.89727e-07
3.47532e-07
2.75544e-07
2.20531e-07
2.52234e-07
3.45032e-07
5.40081e-07
8.15873e-07
2.10682e-06
5.61159e-06
1.69418e-05
2.64983e-05
4.50642e-05
5.23201e-05
5.88493e-05
6.65949e-05
7.77857e-05
8.6284e-05
0.000163088
0.000168016
0.000170596
0.000162712
9.46057e-05
8.87287e-05
7.87099e-05
6.98191e-05
6.7752e-05
7.14159e-05
0.000129993
0.00014254
0.00016752
0.000205183
0.000250161
0.000293697
0.000332185
0.000371968
0.000408891
0.000444491
0.000476852
0.000502563
0.000643071
0.000535112
0.000543936
0.000544914
0.000545327
0.000540452
0.000528448
9.46456e-09
9.10017e-05
0.000322095
0.00017197
7.77364e-05
3.33989e-05
4.72987e-05
1.214e-05
3.25247e-07
1.7669e-08
1.54785e-08
7.10128e-08
6.13208e-08
7.35389e-06
1.16214e-05
9.9807e-06
2.17485e-05
5.1951e-05
0.000130071
0.000312105
0.000525042
0.000539021
0.000230445
6.91878e-05
2.57725e-05
8.54701e-06
9.70588e-06
1.55534e-05
1.81079e-05
3.69737e-05
7.712e-05
0.000139375
0.000208813
0.000255634
0.000284814
0.00030578
0.000328003
0.000306681
0.000279761
0.000223426
0.0002333
0.000208027
0.000197003
0.000140322
7.42636e-05
1.90619e-05
6.66666e-06
4.05289e-06
2.33404e-06
1.3005e-06
7.91269e-07
5.3775e-07
1.16681e-07
3.36989e-07
3.089e-07
2.82479e-07
2.67081e-07
6.87619e-07
5.24015e-07
8.34253e-07
1.8771e-06
4.3966e-06
1.55135e-05
2.30027e-05
4.59903e-05
4.72867e-05
6.06163e-05
6.79649e-05
7.43695e-05
8.43571e-05
9.28598e-05
0.000174096
0.000179568
0.000179752
0.000169903
0.0001597
9.35888e-05
8.2588e-05
7.3914e-05
0.000130513
7.49052e-05
7.59734e-05
0.000150995
0.000176701
0.000210118
0.000254765
0.000297897
0.000396642
0.000374921
0.000410355
0.000445912
0.000477814
0.000503114
0.00052318
0.000534512
0.000542799
0.000543788
0.000544101
0.000538805
0.000526767
3.12158e-09
1.55782e-05
0.000128883
7.48184e-05
2.4861e-05
6.58014e-06
1.34608e-05
4.08164e-07
3.90173e-08
2.53669e-08
3.09909e-09
5.66222e-08
3.78578e-06
2.59452e-06
8.3981e-06
1.32013e-05
3.72247e-05
9.48519e-05
0.000201223
0.000397504
0.000636793
0.000356072
0.000137472
5.40748e-05
2.05516e-05
1.22716e-05
1.26787e-05
1.36702e-05
1.67089e-05
2.58548e-05
4.98694e-05
8.6529e-05
0.000128876
0.000166947
0.000190544
0.000250018
0.000241065
0.000238337
0.000200679
0.000176841
0.000177342
0.00018814
0.000162476
0.000102562
5.00409e-05
1.59415e-05
6.59577e-06
3.41321e-06
2.06274e-06
1.2413e-06
8.08528e-07
5.57961e-07
3.34941e-07
3.59534e-07
3.49735e-07
3.43789e-07
3.51345e-07
4.58996e-07
8.28198e-07
2.246e-06
3.76647e-06
1.51797e-05
2.77878e-05
2.93605e-05
3.79542e-05
5.66134e-05
7.02769e-05
7.86349e-05
8.25224e-05
0.000175206
0.000196148
0.000186555
0.000191864
0.000189843
0.000219469
0.000169769
0.000156879
8.72421e-05
7.83836e-05
0.000140213
7.88974e-05
8.1797e-05
0.000160493
0.000185718
0.000291462
0.000259991
0.000302714
0.000339829
0.000377794
0.000412015
0.000447053
0.000478892
0.000503686
0.000523013
0.000533811
0.000541474
0.000542472
0.000542687
0.000537154
0.000524861
6.523e-10
5.16927e-06
4.79105e-05
4.13589e-05
3.73001e-06
5.49242e-07
2.20657e-07
4.9174e-08
3.38448e-08
9.54649e-08
6.20038e-09
3.21081e-07
3.48679e-05
4.44239e-05
1.1563e-05
8.57034e-06
2.65774e-05
0.000194089
0.000177957
0.000505262
0.000628708
0.000425955
0.000162581
4.79649e-05
9.68144e-06
5.14463e-06
1.11868e-05
1.21646e-05
1.06885e-05
2.00033e-05
3.04749e-05
5.06285e-05
6.29323e-05
8.5414e-05
0.000115092
0.000129184
0.000159068
0.000149322
0.000126205
0.00014638
0.000140027
0.000139686
0.000111704
7.01568e-05
3.25144e-05
1.31405e-05
6.13082e-06
2.89664e-06
1.80633e-06
1.18309e-06
8.95308e-07
6.54363e-07
5.05622e-07
4.06705e-07
8.7163e-07
4.34907e-07
4.54948e-07
7.21058e-07
2.50569e-06
5.00487e-06
1.34371e-05
2.74845e-05
2.79812e-05
5.05857e-05
5.7497e-05
6.75227e-05
8.13153e-05
9.06746e-05
0.000166646
0.000103728
0.000179247
0.000200613
0.000204632
0.000200704
0.000189974
0.000180449
0.000166312
9.285e-05
0.000154937
8.29229e-05
0.000160704
0.000172654
0.000170514
0.000194986
0.000298851
0.000266117
0.0003081
0.000344724
0.000380802
0.000414035
0.00044812
0.000480066
0.00050415
0.000522873
0.000533013
0.00053997
0.0005409
0.000541172
0.000535493
0.000522743
4.86002e-11
4.14107e-07
4.24169e-06
9.41259e-06
2.59713e-07
4.05875e-08
4.84739e-08
3.0859e-08
2.76766e-09
1.23805e-08
2.03618e-06
1.27711e-06
0.000237168
0.000254888
0.000119317
0.000101801
0.000160678
0.000339303
0.000426833
0.000559374
0.000524947
0.000360095
0.000151559
4.72929e-05
1.79437e-05
6.50858e-06
1.08188e-05
1.14773e-05
1.28536e-05
1.64311e-05
2.05131e-05
2.64192e-05
2.22648e-05
2.41662e-05
4.75258e-05
6.1873e-05
7.48259e-05
7.92162e-05
7.96567e-05
8.51508e-05
9.57775e-05
9.47433e-05
7.2791e-05
4.27643e-05
2.06163e-05
1.0109e-05
4.99573e-06
2.44754e-06
1.62786e-06
1.20275e-06
1.00049e-06
8.74383e-07
7.20068e-07
5.85448e-07
6.17534e-07
6.57528e-07
1.84139e-06
4.59822e-06
5.03937e-06
8.77945e-06
1.15754e-05
2.71366e-05
3.72583e-05
4.40024e-05
9.81929e-05
0.000132461
9.36332e-05
0.000104046
0.0001965
0.000183143
0.000199805
0.000215658
0.000217478
0.000212396
0.0002024
0.000191766
0.000217767
0.000194385
8.99637e-05
9.01053e-05
9.1088e-05
0.000152656
0.000180876
0.000204743
0.000233871
0.000274585
0.000313999
0.000349871
0.000383932
0.000416202
0.000449256
0.000481451
0.000504651
0.000522689
0.000532349
0.000538284
0.000539019
0.000539474
0.000533775
0.000520425
3.05866e-12
2.79554e-08
1.11709e-06
9.0174e-07
2.97116e-08
1.75857e-08
3.61112e-08
2.55413e-09
5.27563e-09
7.86166e-08
6.23685e-07
7.43649e-06
0.000585443
0.000581457
0.000329959
0.000210893
8.9308e-05
0.000446749
0.000632765
0.00062424
0.0004827
0.000289969
0.000118754
4.29754e-05
1.88494e-05
1.16635e-05
9.83811e-06
1.04332e-05
1.1215e-05
1.23816e-05
1.39991e-05
1.39803e-05
1.32957e-05
1.72395e-05
2.42415e-05
2.24002e-05
3.06601e-05
3.01162e-05
4.03041e-05
4.72574e-05
5.14781e-05
5.55626e-05
4.13001e-05
2.0361e-05
1.29488e-05
7.30942e-06
4.07641e-06
2.2966e-06
2.60359e-06
1.34637e-06
1.25723e-06
1.16614e-06
1.08277e-06
8.87807e-07
2.44142e-06
1.46994e-06
5.12807e-06
4.77861e-06
8.8535e-06
1.35818e-05
3.13324e-05
4.87254e-05
4.68953e-05
6.82212e-05
7.84495e-05
9.68676e-05
0.00010714
0.000118465
0.000188796
0.000246594
0.00021967
0.000230352
0.000230691
0.000224554
0.000214973
0.000203268
0.000188547
0.000169542
9.70558e-05
0.000190825
0.000156831
0.000166494
0.000191807
0.000214857
0.000245077
0.000282027
0.00032037
0.000355198
0.000387442
0.000520834
0.000450498
0.000482751
0.000505322
0.000522419
0.000531744
0.000536491
0.000536967
0.000537581
0.000531337
0.000517949
2.48624e-10
2.51611e-09
5.14904e-08
5.85179e-08
7.97508e-08
4.61033e-09
3.73716e-07
7.76411e-08
2.20628e-07
5.03483e-07
1.95153e-06
8.37566e-05
0.000565936
0.000380107
0.000524415
0.000297322
0.000308121
0.000507962
0.000681393
0.000464276
0.000385478
0.000195067
7.91901e-05
3.44893e-05
1.80503e-05
6.85474e-06
4.55735e-06
9.15481e-06
8.98788e-06
6.32418e-06
9.66412e-06
9.90643e-06
9.57925e-06
1.02763e-05
1.24015e-05
1.51458e-05
1.7401e-05
1.67461e-05
2.20486e-05
2.20237e-05
2.56377e-05
2.48151e-05
1.73146e-05
1.11758e-05
7.61847e-06
5.32419e-06
3.46997e-06
2.68974e-06
2.2301e-06
1.69299e-06
4.11364e-06
4.20047e-06
4.09656e-06
1.40731e-06
2.61683e-06
3.81816e-06
5.38646e-06
8.65408e-06
1.36689e-05
3.46255e-05
4.19766e-05
5.97379e-05
5.62494e-05
7.58342e-05
9.57437e-05
0.000114553
0.000226003
0.000248762
0.000215559
0.000225983
0.000238641
0.000245457
0.000244471
0.000237301
0.000227433
0.000215267
0.000201356
0.00018361
0.000164033
0.000167011
0.000169937
0.000179715
0.000203125
0.000225425
0.000255933
0.000290009
0.00032712
0.000360738
0.000391024
0.000421257
0.000451944
0.000603278
0.000506219
0.000521954
0.000531204
0.000534638
0.000534707
0.000535545
0.000528014
0.000515325
2.89353e-10
7.45618e-10
1.01356e-08
1.75612e-07
1.16909e-06
1.39764e-07
5.29545e-06
1.36337e-06
2.65125e-05
5.53361e-05
8.354e-05
0.000185922
0.000600014
0.000583377
0.000567757
0.000347141
0.000375336
0.000569201
0.000693227
0.000487519
0.000300946
0.000124191
3.98652e-05
2.66521e-05
1.65987e-05
9.22243e-06
9.7923e-06
9.45095e-06
3.54533e-06
7.75261e-06
4.3023e-06
8.2547e-06
8.57185e-06
8.75389e-06
9.08496e-06
9.23189e-06
9.57928e-06
9.82451e-06
1.01603e-05
9.56427e-06
1.08061e-05
1.34053e-05
9.57485e-06
6.02047e-06
5.86846e-06
4.08145e-06
3.48008e-06
7.43771e-06
3.51352e-06
2.56993e-06
6.98039e-06
2.70956e-06
3.36207e-06
4.28575e-06
1.0911e-05
1.29413e-05
9.35359e-06
2.56662e-05
3.55018e-05
4.59334e-05
5.75921e-05
9.00108e-05
0.000117241
9.30586e-05
0.000192387
0.000132578
0.000254018
0.000232802
0.00024044
0.000248228
0.000256387
0.000260671
0.00025845
0.00025057
0.000240113
0.000227522
0.000214004
0.000197808
0.000216152
0.000181292
0.000183418
0.000236567
0.000214784
0.000236477
0.000266807
0.000298208
0.000334118
0.000366467
0.000394579
0.000424795
0.000568401
0.000484407
0.000507079
0.000521334
0.000530631
0.000532618
0.00053227
0.000532701
0.000524553
0.000512419
8.61353e-10
2.19361e-09
1.43438e-07
2.24552e-07
3.25525e-05
4.62882e-05
5.70795e-05
4.16283e-05
9.06048e-05
0.000443951
0.000304128
0.000432389
0.000643059
0.000697388
0.000553217
0.000417958
0.000494812
0.000589482
0.000657811
0.000396779
0.000204548
7.40145e-05
2.73716e-05
2.37315e-05
1.62871e-05
1.19025e-05
9.71868e-06
9.8379e-06
8.34944e-06
7.97193e-06
6.91701e-06
7.66598e-06
7.27632e-06
3.72563e-06
7.28051e-06
7.31631e-06
7.01452e-06
6.68017e-06
5.69167e-06
7.15535e-06
7.2334e-06
6.65122e-06
5.47359e-06
3.80528e-06
4.56901e-06
4.05658e-06
5.26364e-06
6.6069e-06
5.68671e-06
5.00499e-06
6.46213e-06
8.36978e-06
9.61664e-06
1.46441e-05
1.85293e-05
1.19746e-05
1.47335e-05
5.09826e-05
4.52649e-05
5.9831e-05
6.41686e-05
7.56097e-05
0.000146497
0.00011184
0.000132874
0.000223803
0.000240145
0.000258004
0.000262368
0.000268234
0.000273256
0.000275583
0.000272335
0.000263881
0.000253058
0.000240038
0.000226943
0.000212316
0.000192011
0.000195493
0.000196902
0.000205654
0.000226589
0.000313908
0.000279067
0.000356492
0.000401887
0.000372312
0.000398407
0.00042833
0.00045572
0.00048532
0.000507934
0.000520707
0.000529951
0.000530423
0.000529814
0.000529762
0.000520967
0.000509117
9.99453e-08
1.38352e-06
4.56881e-06
1.07994e-05
0.000570734
0.000430277
0.000145749
0.000408681
0.000509139
0.000570283
0.00054039
0.000519406
0.000653063
0.00077141
0.000696627
0.000517074
0.000630651
0.000710925
0.000598507
0.000301739
0.000135662
6.0729e-05
3.72488e-05
2.38425e-05
1.55816e-05
1.10363e-05
7.57798e-06
1.02316e-05
9.61807e-06
8.55513e-06
7.4555e-06
7.03726e-06
5.08045e-06
6.7597e-06
4.22033e-06
5.74586e-06
5.3549e-06
2.50598e-06
4.09943e-06
5.53146e-06
5.28482e-06
4.41746e-06
3.52436e-06
2.72649e-06
3.16071e-06
5.26217e-06
8.07991e-06
1.09748e-05
1.14541e-05
1.62567e-05
2.08729e-05
1.7808e-05
2.13483e-05
2.39104e-05
2.98578e-05
4.9204e-05
3.80014e-05
5.01168e-05
5.86211e-05
0.000100778
9.6644e-05
9.97767e-05
0.000114667
0.000131561
0.000221159
0.000250255
0.000267011
0.000280428
0.000339228
0.000286498
0.000291182
0.000292023
0.000287645
0.000277244
0.000265865
0.000252997
0.000239717
0.000226698
0.000253314
0.000210033
0.00021084
0.000219157
0.000238693
0.000260028
0.000290348
0.000315987
0.000347892
0.000377112
0.000402479
0.000432017
0.000573034
0.000486134
0.000508147
0.000519976
0.00052806
0.000527993
0.000527187
0.000526782
0.000517245
0.000505654
0.000755173
8.15625e-05
9.73025e-05
0.000440255
0.000613915
0.000599783
0.000633349
0.000672796
0.000662052
0.000694664
0.000693614
0.00069895
0.00069833
0.000698455
0.000667596
0.000552384
0.000695817
0.000695675
0.000550983
0.000293369
0.000124929
7.19104e-05
4.06332e-05
3.06617e-05
1.5128e-05
9.67017e-06
1.13514e-05
1.16348e-05
1.12776e-05
9.56448e-06
7.7652e-06
6.67926e-06
7.81525e-06
7.53807e-06
6.64973e-06
3.41703e-06
3.24593e-06
5.10895e-06
4.93144e-06
4.04126e-06
3.49514e-06
2.66865e-06
3.09241e-06
2.63884e-06
8.9512e-06
8.44254e-06
2.54533e-05
2.05792e-05
3.12506e-05
4.63025e-05
4.06724e-05
3.64808e-05
3.81929e-05
4.08671e-05
4.68602e-05
5.00537e-05
5.38911e-05
0.000100074
0.000105053
0.000104515
0.000171557
0.000202166
0.000141437
0.000221362
0.000254977
0.00027956
0.0002952
0.000304605
0.000307898
0.000309057
0.000309954
0.000309103
0.000304148
0.000294595
0.000328305
0.000268511
0.000255139
0.000315222
0.000228848
0.000284681
0.000227507
0.000234844
0.000253512
0.000274949
0.000303611
0.000381852
0.000356588
0.00038261
0.000406578
0.000541364
0.000461967
0.000487188
0.000507665
0.000519004
0.000525641
0.000525158
0.0005239
0.000523224
0.000512685
0.000501224
0.00115641
0.000699725
0.000500007
0.000647235
0.000809866
0.000788023
0.000755173
0.000575614
0.000665719
0.000678883
0.000647081
0.000668239
0.000665347
0.000683182
0.000722029
0.000696566
0.000683752
0.000620674
0.000432314
0.000234208
0.000120932
7.6397e-05
4.65683e-05
2.52044e-05
1.66076e-05
1.70366e-05
1.87499e-05
1.58466e-05
2.26122e-05
1.40494e-05
1.18786e-05
1.17281e-05
1.08364e-05
9.66886e-06
9.02504e-06
7.57713e-06
6.75249e-06
5.55718e-06
3.99288e-06
3.11377e-06
2.79967e-06
2.2859e-06
3.58807e-06
4.05693e-06
8.45369e-06
1.62746e-05
4.16859e-05
6.91506e-05
7.41677e-05
6.32906e-05
4.76459e-05
7.02238e-05
7.62057e-05
8.03194e-05
5.997e-05
6.48053e-05
0.000101875
0.000132399
0.000102295
0.000194392
0.000226158
0.000266321
0.000240247
0.000262058
0.000288194
0.000309125
0.000322971
0.000329765
0.000332344
0.000329786
0.000328851
0.000327128
0.000321472
0.000312178
0.000300837
0.000286304
0.000273956
0.000263801
0.000251313
0.000248106
0.000246552
0.000253121
0.000270487
0.000293455
0.000318144
0.000341476
0.000366606
0.000389442
0.000411363
0.000439734
0.000466345
0.000488274
0.000507088
0.000517752
0.000522766
0.000521587
0.000519782
0.000517885
0.000507384
0.000495834
0.00108731
0.00103601
0.00108949
0.000913585
0.000883678
0.000852044
0.000697588
0.000568728
0.000600887
0.000537917
0.000349625
0.000460311
0.000550529
0.000635712
0.000683131
0.000632566
0.000566462
0.000425957
0.000228898
0.000117117
0.0001282
7.14287e-05
5.15932e-05
2.74586e-05
3.15089e-05
2.10109e-05
2.33561e-05
2.48842e-05
4.54458e-05
2.19606e-05
2.94972e-05
2.67061e-05
1.55716e-05
1.10115e-05
1.784e-05
1.10328e-05
8.96086e-06
6.74843e-06
4.32813e-06
4.04623e-06
2.87718e-06
3.17018e-06
4.63353e-06
1.4789e-05
1.6295e-05
4.81323e-05
8.23212e-05
8.04092e-05
7.4775e-05
7.15769e-05
6.8871e-05
0.000102207
6.97066e-05
0.000115518
8.35554e-05
0.000140738
0.000150725
0.000185633
0.000135231
0.000153043
0.000170694
0.000257095
0.000279727
0.000296516
0.000355071
0.000333544
0.000344437
0.00035025
0.000404017
0.000400723
0.000346431
0.000343859
0.000338308
0.000328788
0.000317964
0.000305402
0.00029255
0.000283451
0.00027313
0.00026884
0.0002668
0.000271682
0.00033269
0.000310434
0.000332583
0.000353337
0.000376161
0.000396344
0.000416194
0.000548559
0.000468189
0.000489835
0.000506094
0.000516747
0.000519772
0.000517976
0.000515899
0.000512056
0.000501621
0.000490234
0.00101883
0.00129249
0.00129822
0.00112827
0.000938858
0.000827336
0.000688218
0.000642808
0.000550836
0.000421582
0.000253257
0.000255824
0.000382661
0.000442494
0.000528793
0.000468963
0.000377932
0.000312121
0.000193969
0.000127534
8.60123e-05
9.70714e-05
8.18585e-05
5.69362e-05
4.77313e-05
2.91849e-05
3.10448e-05
3.87097e-05
4.74511e-05
4.23235e-05
7.06939e-05
4.06794e-05
3.26304e-05
3.90967e-05
2.33205e-05
1.83942e-05
1.9413e-05
7.84531e-06
5.43983e-06
4.29635e-06
4.66958e-06
1.16315e-05
1.04816e-05
1.84825e-05
7.64525e-05
9.91226e-05
0.000135798
9.50793e-05
0.000104219
0.000106052
0.000101358
0.000161716
0.000165234
0.000106762
0.000115186
0.000123269
0.000132489
0.000150463
0.000168098
0.000249703
0.000272505
0.000354862
0.000310956
0.000365009
0.000340395
0.000352335
0.000360334
0.000365203
0.000367353
0.000364651
0.000425852
0.000358046
0.000352142
0.000343901
0.000334215
0.000321555
0.000312029
0.000303524
0.000293509
0.000336251
0.000286421
0.000290057
0.000306975
0.000325911
0.00034615
0.000364732
0.000383347
0.000402808
0.000421882
0.00044653
0.000469542
0.000491212
0.000504648
0.000514672
0.000516135
0.000514112
0.000511273
0.000505989
0.000495379
0.000484457
0.000993494
0.0011867
0.0013789
0.00129179
0.00112069
0.00103598
0.00087779
0.00068998
0.000541406
0.000436878
0.000212607
0.000233303
0.000228324
0.000276943
0.000315493
0.000285393
0.000226089
0.000176845
0.000143076
0.000122601
9.82075e-05
0.000137555
8.30662e-05
6.37317e-05
4.63302e-05
3.98872e-05
3.46707e-05
9.28393e-05
7.61081e-05
0.000116327
8.24896e-05
8.08402e-05
0.000108012
4.93476e-05
6.69279e-05
2.30916e-05
1.26235e-05
8.81862e-06
7.62158e-06
6.78915e-06
8.82627e-06
1.42664e-05
3.11487e-05
9.59205e-05
0.000113492
9.94818e-05
0.000174789
0.000203365
0.000214577
0.000214881
0.000244417
0.00024165
0.0002423
0.000142326
0.000257055
0.000159091
0.000231247
0.000305686
0.00026974
0.000286822
0.000304098
0.000319262
0.000333533
0.000346032
0.000356818
0.00036629
0.000372082
0.000376695
0.000379442
0.000378307
0.000374893
0.000371878
0.000365545
0.000357
0.000348232
0.000337249
0.000377305
0.000321596
0.00031441
0.000309641
0.000307242
0.000310311
0.000370432
0.000341579
0.000357895
0.000375606
0.00039077
0.000407325
0.000427625
0.000450585
0.000470762
0.000490249
0.000503069
0.000510723
0.000511972
0.000509956
0.000505524
0.000500233
0.000488882
0.000478379
0.000985943
0.00107028
0.00126154
0.00136242
0.00131069
0.00126297
0.00118441
0.000959879
0.00064743
0.000413865
0.000286726
0.000127555
9.99591e-05
0.000121065
0.000149865
0.000103448
8.72794e-05
0.000130786
9.3484e-05
0.000106591
0.000112798
0.000127544
0.000118101
9.1954e-05
6.99821e-05
9.51261e-05
6.3241e-05
8.24764e-05
0.000107068
0.000116718
0.000118269
0.000106021
9.42142e-05
7.75381e-05
5.29109e-05
2.28733e-05
1.27292e-05
2.64205e-05
1.07312e-05
1.41199e-05
2.09198e-05
3.85384e-05
0.00011083
0.000134669
0.000126652
0.000205934
0.000313431
0.000262568
0.00026922
0.000266781
0.000260521
0.000259499
0.000256894
0.000253427
0.00025885
0.000267798
0.000279498
0.000290819
0.000302647
0.00031429
0.000326151
0.000338105
0.000348151
0.000358828
0.000434565
0.000374325
0.000382281
0.000387105
0.000389275
0.000387932
0.000384743
0.000381083
0.000375406
0.00036938
0.000360829
0.000351231
0.000344096
0.000337689
0.000331555
0.000328461
0.000325775
0.000327809
0.000340612
0.000354969
0.000369202
0.000382666
0.00039839
0.000501891
0.000430699
0.00045301
0.000472388
0.000489033
0.000501386
0.000506983
0.000507384
0.000505398
0.000499443
0.000494118
0.000482389
0.00047217
0.000983081
0.00101939
0.00112027
0.00124378
0.0012677
0.00126104
0.00128294
0.00121166
0.000913653
0.000556367
0.00031055
0.000123499
7.57154e-05
9.14326e-05
8.41501e-05
6.78302e-05
7.53391e-05
8.51783e-05
0.000131815
0.000115239
0.000188729
0.000167332
0.000159915
0.000123655
0.000157567
0.000147493
8.70811e-05
0.000184413
0.000141717
0.000165294
0.000163661
0.000130688
0.000171922
0.000100615
6.96146e-05
3.95203e-05
4.11237e-05
1.44897e-05
1.97612e-05
5.34962e-05
4.60851e-05
0.000122264
0.000150087
0.000204223
0.000235944
0.000272235
0.000296056
0.000308975
0.000312784
0.000309866
0.00034981
0.000305816
0.000302257
0.00035179
0.000353889
0.000305766
0.000311094
0.000318688
0.000379379
0.000334225
0.000339877
0.000347842
0.000355369
0.000364981
0.000374263
0.000381292
0.000388663
0.000393669
0.000396798
0.000397063
0.000483097
0.000391334
0.000384772
0.000377864
0.000371882
0.000363606
0.000357101
0.000351369
0.000346167
0.000343568
0.00038815
0.00038998
0.000355121
0.000366159
0.000377879
0.000389248
0.000403117
0.000417381
0.000433892
0.000454053
0.000473288
0.000487304
0.000498991
0.00050253
0.000502725
0.0004992
0.000493281
0.000486817
0.000475872
0.000464502
0.000982801
0.00101177
0.00105839
0.00112489
0.00117591
0.0012092
0.0012663
0.00131639
0.00117835
0.000812738
0.000485961
0.000188195
0.000134322
9.43247e-05
9.00661e-05
7.71876e-05
8.76334e-05
0.000123301
0.000134984
0.000176548
0.000216072
0.000240153
0.000313403
0.000182455
0.000148379
0.000237911
0.000117136
0.000234665
0.000186314
0.000219006
0.000200584
0.000161947
0.000146675
0.000125527
9.23187e-05
6.2512e-05
4.6317e-05
2.75417e-05
4.39865e-05
7.17364e-05
0.000122713
0.000203396
0.00021564
0.000249922
0.000292247
0.000382404
0.000333026
0.000339744
0.000342606
0.000341253
0.000386651
0.000336143
0.000332012
0.000329662
0.00032924
0.000330019
0.00033245
0.000335099
0.000338838
0.000412579
0.000345651
0.00035279
0.000360112
0.000369991
0.000380518
0.000389481
0.000396572
0.000402173
0.000405
0.000404023
0.000401392
0.000398042
0.000393171
0.000387193
0.000379985
0.000374061
0.000368198
0.000362211
0.000357973
0.000356348
0.000355182
0.000406616
0.00036569
0.000375773
0.000383924
0.000395971
0.000406972
0.000420802
0.000437751
0.000454934
0.000472313
0.000485503
0.000494691
0.000497733
0.000498004
0.000492689
0.000486633
0.000479462
0.000469129
0.000456987
0.000985675
0.00102244
0.00106569
0.00110836
0.00112733
0.00112795
0.0011722
0.00129101
0.00129959
0.00106165
0.000709972
0.000461665
0.000271611
0.000195245
0.000150413
0.000145925
0.000209012
0.000282151
0.000221773
0.000390183
0.00032506
0.000337244
0.000302243
0.000266394
0.000239963
0.000237012
0.000287839
0.000174517
0.000237757
0.000188989
0.000201391
0.000183238
0.000236431
0.000134824
9.91008e-05
7.81416e-05
6.61599e-05
9.75546e-05
0.000114703
0.000181433
0.000223409
0.000252809
0.000266421
0.000368216
0.00032768
0.000344123
0.000445993
0.000356297
0.00044583
0.000357931
0.000424087
0.000351409
0.000347464
0.000345362
0.000409711
0.000341858
0.000340813
0.000341034
0.000342999
0.000345851
0.000348649
0.000356688
0.000365348
0.000466224
0.000385273
0.000395069
0.00040217
0.000407085
0.000410443
0.000411118
0.000410259
0.00040548
0.000399565
0.000393779
0.00038899
0.000381159
0.000376222
0.00037282
0.000368672
0.000366942
0.000366099
0.000367879
0.000437887
0.000381613
0.000390413
0.000399338
0.000411982
0.000423126
0.000439725
0.000456489
0.000470814
0.000484077
0.000490534
0.000493006
0.000491619
0.00048616
0.000479452
0.000472214
0.000461264
0.000449381
0.000994039
0.00104817
0.00109622
0.00108153
0.00101612
0.000926089
0.000975123
0.00115692
0.00126992
0.00119066
0.000910124
0.000652784
0.000474882
0.000383287
0.000291555
0.000386447
0.000303526
0.000345668
0.00044949
0.000399409
0.000447312
0.000431872
0.000397575
0.000514063
0.000315258
0.000234373
0.000188759
0.000190806
0.000319598
0.000226005
0.000227878
0.000221268
0.000205942
0.000173677
0.00012064
0.000140871
8.85424e-05
0.000120417
0.000163768
0.000289054
0.00027408
0.000365589
0.000311646
0.000426903
0.000451018
0.000352207
0.000359347
0.000364316
0.000365189
0.000458184
0.000359129
0.000354379
0.00035144
0.000349256
0.000346836
0.000343928
0.000342167
0.000342166
0.000344067
0.000347529
0.000352303
0.000360547
0.000369515
0.000380061
0.000390309
0.000399399
0.000406844