/*--------------------------------*- C++ -*----------------------------------*\
  =========                 |
  \\      /  F ield         | OpenFOAM: The Open Source CFD Toolbox
   \\    /   O peration     | Website:  https://openfoam.org
    \\  /    A nd           | Version:  6
     \\/     M anipulation  |
\*---------------------------------------------------------------------------*/
FoamFile
{
    version     2.0;
    format      ascii;
    class       volScalarField;
    location    "0.1";
    object      O2;
}
// * * * * * * * * * * * * * * * * * * * * * * * * * * * * * * * * * * * * * //

dimensions      [0 0 0 0 0 0 0];

internalField   nonuniform List<scalar> 
8000
(
0.228441
0.220541
0.186847
0.117957
0.0762761
0.115447
0.16228
0.197743
0.217105
0.225116
0.227273
0.227498
0.226568
0.217405
0.218425
0.218059
0.161295
0.0113046
0.127377
0.170979
0.163328
0.130102
0.0797014
0.0365776
0.0149025
0.0111553
0.0107834
0.0101342
0.0109773
0.053298
0.0124005
0.021988
0.0384007
0.0548664
0.0702418
0.08278
0.0897009
0.0872628
0.071597
0.0563105
0.0634583
0.0650415
0.0564647
0.0415087
0.025817
0.0130761
0.00603392
0.00351201
0.00369448
0.0268776
0.00571663
0.0032935
0.00303478
0.00288579
0.00263985
0.00234088
0.00202489
0.00169022
0.00132508
0.000969469
0.000584019
0.000442623
0.000321894
0.000521046
0.000869589
0.00123037
0.00218277
0.0024258
0.00308437
0.00357717
0.00454413
0.00497962
0.00484476
0.00790752
0.00782029
0.00454407
0.00457386
0.00417481
0.00355006
0.00324424
0.00372466
0.00378263
0.00452597
0.00804942
0.010054
0.0131133
0.0162224
0.0193951
0.0232111
0.027404
0.0324734
0.0374961
0.041312
0.0441702
0.0521298
0.0565835
0.0595986
0.0618921
0.0620929
0.0699646
0.228467
0.219539
0.182047
0.112033
0.0665901
0.114664
0.165026
0.198993
0.218004
0.225492
0.227324
0.227329
0.22555
0.193317
0.198934
0.213156
0.199768
0.171388
0.162492
0.15986
0.154013
0.123696
0.0755987
0.0349468
0.0144265
0.0113496
0.0106178
0.0100532
0.0105704
0.014668
0.0146919
0.0240453
0.0382515
0.052242
0.0646729
0.0754224
0.0822186
0.0807905
0.0653246
0.0322378
0.0540175
0.0603765
0.0531595
0.0389807
0.0241434
0.0122254
0.00571185
0.0033762
0.00371857
0.00296002
0.00324307
0.00316643
0.00302654
0.00283724
0.00258679
0.00228161
0.00195803
0.00162065
0.00126425
0.000927718
0.000568423
0.000437271
0.000322091
0.000568134
0.000832911
0.00128944
0.00225339
0.00248452
0.0031383
0.00365701
0.0039498
0.00507015
0.00487892
0.00799023
0.00788831
0.00457138
0.00462612
0.00421295
0.00359414
0.00324586
0.00375845
0.003799
0.00456956
0.00809953
0.0100611
0.0131661
0.0162818
0.0194486
0.0222778
0.027476
0.0325257
0.0375569
0.0413665
0.0441939
0.0521989
0.0566357
0.059651
0.0619451
0.0620936
0.0700231
0.228346
0.213852
0.151045
0.0543522
0.111055
0.143936
0.181768
0.177734
0.198107
0.225251
0.220795
0.227138
0.224208
0.139635
0.144454
0.193973
0.209035
0.200687
0.119103
0.0293816
0.116623
0.107648
0.0667188
0.0315972
0.0134707
0.012481
0.0108803
0.00987346
0.00956563
0.0115279
0.0150203
0.0235959
0.0360732
0.0466549
0.0531915
0.0591393
0.066481
0.0674496
0.0623299
0.0554338
0.058397
0.0562217
0.0473934
0.0340426
0.0208562
0.0105584
0.00504454
0.00319944
0.00363597
0.00316256
0.00277626
0.00313052
0.00289382
0.00270386
0.0024583
0.00214596
0.00181475
0.00148253
0.00114874
0.000798944
0.00053956
0.000426817
0.000323435
0.000605007
0.000939994
0.00141934
0.00224547
0.0026191
0.0032531
0.00382704
0.00421873
0.00524412
0.00905591
0.0081753
0.00803632
0.00716963
0.00474173
0.00429672
0.00369012
0.00402761
0.0038345
0.00383422
0.00466854
0.00820383
0.0133923
0.0132838
0.0164104
0.0195638
0.0227621
0.0276199
0.0326399
0.0376897
0.0494299
0.0529826
0.0523512
0.0567506
0.0597659
0.0620614
0.0753974
0.0701523
0.228023
0.203174
0.143983
0.120817
0.144362
0.171639
0.198681
0.215199
0.224258
0.227198
0.227766
0.227568
0.225985
0.143949
0.00930334
0.177345
0.213511
0.210286
0.156675
0.132191
0.134153
0.103151
0.0580283
0.0253706
0.0124408
0.00774225
0.0121562
0.00964556
0.008992
0.010085
0.0135855
0.021655
0.0325982
0.0403314
0.0398757
0.0317607
0.0456165
0.0452048
0.0506348
0.0506512
0.0511849
0.0465894
0.0386053
0.0273556
0.0157867
0.00772226
0.00429884
0.00302977
0.00345625
0.00307971
0.00270103
0.00294749
0.00539708
0.00249017
0.00225224
0.00193842
0.00161369
0.00130404
0.00100876
0.000648864
0.000505818
0.000370684
0.000327801
0.000693517
0.00109738
0.0016214
0.00248491
0.00283895
0.00341502
0.00407305
0.00664028
0.00792643
0.00788764
0.0084693
0.00825821
0.00504421
0.00492074
0.00442364
0.0038349
0.00358479
0.00395506
0.00388548
0.00482777
0.00834722
0.0104927
0.0134684
0.0166047
0.019736
0.0231725
0.0278277
0.0328121
0.0378896
0.0419222
0.0452881
0.0525864
0.0569246
0.05994
0.0622378
0.0634197
0.0703541
0.228099
0.175043
0.00747426
0.096888
0.157558
0.189453
0.211566
0.222871
0.226852
0.227847
0.224372
0.224431
0.223943
0.189823
0.173045
0.20654
0.218299
0.213728
0.185072
0.163189
0.137752
0.0919211
0.045935
0.0207402
0.0120688
0.0118686
0.0105813
0.00897485
0.00823271
0.00918968
0.0121735
0.0190893
0.028499
0.0354771
0.0382952
0.0408928
0.045494
0.0455334
0.0417049
0.0385614
0.0374812
0.032877
0.0277139
0.0192578
0.0116697
0.0056992
0.00327617
0.00277749
0.00319297
0.00282481
0.00250961
0.00274963
0.00274787
0.00222386
0.00198244
0.00168047
0.00138284
0.00111223
0.000823505
0.000583951
0.000473184
0.000355887
0.000379469
0.000800835
0.00127685
0.00222616
0.00281403
0.00316974
0.00442226
0.00438589
0.00483784
0.00836428
0.00852799
0.00885046
0.00854865
0.00542786
0.00515427
0.00459276
0.00402396
0.00386
0.00411273
0.00574599
0.00505456
0.0109174
0.0108489
0.013711
0.0168644
0.0199643
0.0236117
0.0280957
0.0330408
0.0381532
0.0423754
0.0461487
0.0528873
0.0571563
0.0601722
0.0624706
0.0644799
0.0706104
0.228243
0.179275
0.0592931
0.13354
0.182876
0.205492
0.220403
0.21188
0.227605
0.228011
0.227978
0.227767
0.22735
0.213008
0.20852
0.212565
0.206726
0.208383
0.195984
0.167989
0.126408
0.0722355
0.0257527
0.00983028
0.0115288
0.0111331
0.00992424
0.00880549
0.00797555
0.00824204
0.0105971
0.0160828
0.0225315
0.0301009
0.034636
0.0387054
0.0412286
0.0397448
0.0344693
0.0275999
0.0259043
0.0184371
0.0198026
0.013121
0.00768083
0.00417969
0.00291538
0.00259077
0.00288244
0.00690706
0.00224124
0.002443
0.00603105
0.00189303
0.00167438
0.00140497
0.00115644
0.000943828
0.000645672
0.000532042
0.000441685
0.000373709
0.000471011
0.0010393
0.00156976
0.00260825
0.00323567
0.00363064
0.00408844
0.00476938
0.00526969
0.00890726
0.0091687
0.00930953
0.00890496
0.00581229
0.0054367
0.00480425
0.00425222
0.0041077
0.00430602
0.00626059
0.0077459
0.00906008
0.0111823
0.0140092
0.0171902
0.0202509
0.0240554
0.028421
0.0333246
0.0384771
0.0428512
0.0563012
0.0532472
0.0574507
0.060461
0.0627579
0.0653488
0.0709141
0.228491
0.199364
0.141941
0.161522
0.205798
0.217361
0.207047
0.214054
0.222988
0.227834
0.227797
0.227452
0.222688
0.221784
0.219641
0.220246
0.21545
0.20641
0.18904
0.157636
0.0924236
0.0518625
0.0235979
0.0135425
0.0108728
0.00838809
0.00851279
0.00857186
0.00881929
0.00770643
0.00892445
0.0119973
0.0174769
0.0221915
0.0259005
0.0293391
0.0328465
0.02982
0.0253109
0.0187193
0.0187264
0.0153523
0.0133083
0.00931244
0.0056464
0.00300657
0.00820882
0.00270373
0.0025388
0.00223349
0.00193543
0.00181821
0.00618378
0.00154888
0.00136706
0.00115174
0.000965895
0.00666772
0.000573016
0.000496326
0.000441861
0.000449771
0.000997931
0.00136471
0.00174029
0.00293945
0.00375786
0.00421189
0.00459349
0.00520728
0.00571616
0.00954476
0.00984219
0.0098506
0.00932036
0.00879165
0.00576666
0.00506253
0.0045161
0.00621927
0.00453391
0.00458569
0.00821455
0.00959571
0.0115124
0.0143616
0.0175812
0.0222139
0.0245384
0.0288054
0.0336627
0.0388576
0.04336
0.0477108
0.0536656
0.057801
0.0608057
0.0630987
0.0661019
0.0712611
0.226248
0.211003
0.180342
0.207202
0.219755
0.224575
0.21439
0.226929
0.227668
0.22764
0.224411
0.222115
0.22413
0.216789
0.221299
0.218923
0.210804
0.196959
0.17648
0.14218
0.0887568
0.029725
0.0183444
0.008748
0.0110051
0.0103528
0.00944107
0.00831789
0.00762595
0.00713503
0.00995944
0.00924106
0.0117524
0.0145832
0.016446
0.0221461
0.0214948
0.0208128
0.0168879
0.0142611
0.0134242
0.013282
0.010944
0.00710895
0.0043593
0.00270184
0.00234806
0.00200146
0.00216924
0.00185773
0.00159445
0.00138286
0.00643234
0.00116446
0.00103217
0.000885376
0.000759011
0.000589912
0.000525529
0.000478997
0.000451456
0.00109865
0.00111298
0.00167148
0.00233857
0.00352241
0.00437929
0.00490897
0.00513754
0.00935366
0.0110715
0.0102886
0.0105749
0.0104592
0.0122941
0.00936659
0.00866199
0.00537616
0.00480867
0.00682395
0.00479798
0.00496318
0.00874696
0.0101335
0.0165699
0.014768
0.018037
0.021175
0.0250672
0.0292486
0.0340577
0.03929
0.0439078
0.0485422
0.054134
0.0582058
0.0612051
0.0634915
0.0667807
0.0716491
0.228558
0.224316
0.2052
0.208634
0.225757
0.227187
0.227341
0.227682
0.227658
0.227278
0.222735
0.217858
0.203316
0.211959
0.208207
0.207735
0.193792
0.179376
0.15935
0.120086
0.0738447
0.036186
0.0185005
0.0115054
0.0084635
0.00806756
0.00910392
0.00851054
0.00855981
0.00705966
0.0070558
0.00783577
0.0082621
0.00946591
0.0109319
0.0116619
0.0158185
0.0128278
0.0108053
0.0142553
0.0104714
0.00968024
0.00778134
0.00539219
0.0034407
0.00239915
0.00201847
0.00170254
0.00178783
0.00149429
0.00132712
0.00110031
0.00095464
0.000840497
0.00681477
0.000664616
0.000584977
0.000529298
0.000551907
0.000560141
0.00119287
0.00162201
0.00157493
0.00189997
0.00326637
0.00421714
0.00510767
0.00572351
0.00837623
0.00654474
0.00995556
0.0111422
0.0113526
0.0111274
0.0105263
0.00999349
0.00920706
0.00575921
0.00779979
0.00509325
0.00840395
0.00942322
0.00932228
0.0106979
0.0170714
0.0152499
0.0185563
0.0217944
0.0256356
0.0297609
0.0345087
0.0397704
0.0445969
0.0493546
0.0546484
0.0586635
0.0616586
0.0639374
0.0674104
0.0720766
0.228797
0.227541
0.225269
0.217588
0.227662
0.227949
0.224596
0.227751
0.224653
0.221008
0.22466
0.21154
0.1739
0.145138
0.195199
0.196759
0.185156
0.157358
0.114099
0.0789466
0.042922
0.0305674
0.0170826
0.010877
0.00955173
0.00823335
0.00880053
0.00825278
0.0074991
0.00707799
0.00707733
0.00715331
0.00772026
0.00928608
0.0104015
0.00802459
0.00835914
0.00824806
0.00787297
0.00756836
0.0075594
0.00714437
0.00571999
0.00401845
0.0028219
0.00213306
0.00171914
0.00140559
0.00142811
0.0011737
0.00103643
0.000922327
0.000766336
0.000694678
0.000626567
0.000576193
0.00722139
0.00545504
0.00058176
0.000694232
0.00076993
0.00153129
0.00206116
0.00269396
0.00406547
0.00586243
0.00594985
0.00666038
0.0107704
0.0102763
0.0112063
0.0120811
0.0121804
0.0118677
0.0112938
0.010681
0.0124067
0.0108747
0.00558141
0.00557302
0.00561319
0.00840028
0.00993953
0.011308
0.0131319
0.0159816
0.019137
0.0224549
0.0262423
0.0303258
0.0350151
0.0403016
0.0453123
0.050153
0.0552163
0.0591731
0.0621656
0.0644326
0.0680101
0.0725425
0.228852
0.225982
0.222529
0.223475
0.228032
0.228013
0.227789
0.224765
0.22313
0.219979
0.213009
0.197874
0.0929534
0.0759131
0.160137
0.177464
0.169837
0.141032
0.0982995
0.0649988
0.0409833
0.025539
0.0149193
0.0101338
0.00880316
0.00922454
0.00839836
0.00792251
0.00761112
0.00704172
0.0069339
0.00710947
0.0072064
0.00713486
0.00721201
0.00916817
0.00691704
0.00963162
0.00613282
0.0103013
0.00539705
0.00521869
0.00422842
0.00292502
0.0023705
0.00184745
0.00142437
0.00115035
0.00769247
0.000919995
0.000816186
0.000734449
0.000662976
0.000596315
0.00741925
0.000544437
0.00456597
0.000572338
0.000711398
0.000886295
0.0017343
0.0017765
0.00272598
0.00391023
0.00500667
0.00618436
0.00690944
0.00772309
0.0107004
0.0142282
0.0124471
0.0130656
0.0130688
0.0126817
0.0120908
0.0113992
0.0105318
0.00944561
0.00606919
0.0106671
0.00867426
0.00918551
0.0106047
0.0119747
0.0139156
0.0166006
0.0197771
0.0231575
0.0268982
0.0354511
0.0355752
0.0408835
0.0460629
0.0509509
0.0558333
0.0597344
0.0627219
0.0649756
0.0687425
0.0730486
0.228415
0.226031
0.224697
0.224271
0.227495
0.224101
0.22683
0.221325
0.218565
0.216094
0.209107
0.201336
0.129481
0.0292703
0.133108
0.165192
0.162221
0.131185
0.0700766
0.0380007
0.0322681
0.0188819
0.0090571
0.00923846
0.00829633
0.00835539
0.00802648
0.00752798
0.00761056
0.00818234
0.0072672
0.00706034
0.00679643
0.00658406
0.00640945
0.00719952
0.00644264
0.00658677
0.00916834
0.00492824
0.00433579
0.00379833
0.0030849
0.0024944
0.00204396
0.00157799
0.0011764
0.000961971
0.000866098
0.000749013
0.00777093
0.0077259
0.00766965
0.000535311
0.000539872
0.000559064
0.00058757
0.000702547
0.000898576
0.00191071
0.00233446
0.00237206
0.00372925
0.00507438
0.00644282
0.00767585
0.0126649
0.014447
0.0124004
0.012986
0.0137218
0.0141104
0.0140254
0.0135588
0.0129337
0.0121645
0.0113316
0.0102788
0.00914356
0.00929422
0.0094319
0.00995559
0.0113078
0.0126879
0.0147394
0.0172808
0.0204718
0.0239153
0.027594
0.0318281
0.0362049
0.0492761
0.0468561
0.0517589
0.0564937
0.0603451
0.0633265
0.0655591
0.0694834
0.0735929
0.228316
0.228365
0.228033
0.227239
0.225715
0.220806
0.222812
0.215007
0.214748
0.207847
0.202155
0.185993
0.126571
0.0695232
0.129119
0.159126
0.153051
0.120714
0.0687839
0.0399379
0.0261867
0.0150476
0.00843064
0.0083444
0.00775271
0.00834489
0.00761242
0.00716333
0.00784412
0.00746062
0.00795176
0.00775031
0.00812207
0.00778832
0.00687557
0.00655803
0.00680013
0.00647728
0.00518453
0.00441054
0.00854537
0.00862905
0.00274309
0.00217462
0.00818702
0.0012788
0.000969277
0.00836344
0.000676702
0.000668979
0.00746917
0.000581211
0.000575981
0.000586669
0.00375142
0.00219648
0.000724242
0.00158429
0.00197905
0.00250909
0.00337539
0.00392959
0.00537641
0.00652039
0.0100774
0.00933965
0.0149851
0.0136603
0.0140736
0.0145251
0.0149755
0.0152116
0.0150416
0.0144992
0.013816
0.0129938
0.0121449
0.0111578
0.012354
0.0101363
0.0102281
0.0133595
0.0120585
0.013455
0.0155941
0.0180297
0.0212281
0.0247276
0.0283256
0.0327936
0.0432046
0.0423819
0.0476933
0.0525876
0.0571908
0.0610035
0.0639795
0.0663132
0.0702337
0.0741754
0.228232
0.226324
0.227239
0.218116
0.19924
0.209215
0.206195
0.192039
0.177062
0.113926
0.169037
0.115626
0.119979
0.0405518
0.0996887
0.150738
0.136776
0.0903336
0.0479304
0.030936
0.0192513
0.00866453
0.00887638
0.00788655
0.00718084
0.00666994
0.00640255
0.00636666
0.00637372
0.00651943
0.0063673
0.00725313
0.00757509
0.00774289
0.00686021
0.00652201
0.00623038
0.00590983
0.00804956
0.00402912
0.00359928
0.00290918
0.00236901
0.00188896
0.00804942
0.00107322
0.000921037
0.00086371
0.00068866
0.000618754
0.000674518
0.000741208
0.000765287
0.00210099
0.00225486
0.000833574
0.000942609
0.00286037
0.00246242
0.00349209
0.00450743
0.00548465
0.0072902
0.00818334
0.00980419
0.0140291
0.0148116
0.0155979
0.0157085
0.0159965
0.0162629
0.0163862
0.0161344
0.0155117
0.0147444
0.0138722
0.0130068
0.0120882
0.0108213
0.0110083
0.0110625
0.0115544
0.0128604
0.0182094
0.0166634
0.0199942
0.0237521
0.0255844
0.0291096
0.0337901
0.0379839
0.0433123
0.0485686
0.0534522
0.0579254
0.0617076
0.0646796
0.0670883
0.0709978
0.0747975
0.221212
0.223292
0.222102
0.190788
0.0373833
0.145651
0.163133
0.149035
0.101901
0.128993
0.0983472
0.102426
0.116011
0.051205
0.0800422
0.137021
0.114805
0.0649575
0.0486169
0.0243459
0.0151735
0.0102811
0.00816168
0.00695965
0.00652084
0.00581694
0.00825167
0.00560027
0.0053603
0.00563398
0.00580177
0.00559853
0.00806916
0.00605418
0.00787806
0.00589857
0.00565099
0.0073667
0.00784948
0.00362629
0.00319651
0.00264982
0.00207516
0.00154077
0.00111589
0.000937305
0.000926694
0.00100431
0.00102264
0.00272818
0.00153586
0.00118154
0.00134197
0.00145665
0.00173373
0.00297292
0.00206401
0.00273772
0.00339905
0.00451212
0.00619742
0.00749639
0.00872154
0.0100507
0.0144313
0.0163005
0.0171576
0.0175764
0.0208618
0.0174792
0.0178045
0.0178129
0.0174666
0.0165871
0.0157273
0.0148124
0.0139145
0.013038
0.0146402
0.011935
0.0119461
0.0124201
0.0137069
0.0151847
0.0176292
0.0198051
0.023006
0.0265172
0.0299451
0.0348273
0.046013
0.0442848
0.0494877
0.0543411
0.0587153
0.0624658
0.065425
0.0678825
0.0717785
0.0754541
0.147062
0.187927
0.195472
0.113117
0.0294551
0.0953938
0.109521
0.0654958
0.0723918
0.093508
0.0935541
0.0663416
0.0936104
0.0920028
0.11109
0.09681
0.0934835
0.0678317
0.0419375
0.0232738
0.0101166
0.00782226
0.00740206
0.00785449
0.00784235
0.00845908
0.00854841
0.00461826
0.00442343
0.00448936
0.00841801
0.00826708
0.00442082
0.00421161
0.00426731
0.00764389
0.00759819
0.00478951
0.00410248
0.00799546
0.00269988
0.00215067
0.00790073
0.00117208
0.00831302
0.000943198
0.00618741
0.00143093
0.00196767
0.0037576
0.00243346
0.00216349
0.00218107
0.00227703
0.00252294
0.00270541
0.00301645
0.00410955
0.00475669
0.00677874
0.00910413
0.0113676
0.0113616
0.0150065
0.017368
0.0190911
0.0199041
0.0199607
0.0196756
0.0195199
0.0194613
0.0193668
0.0189366
0.018137
0.0184679
0.0160045
0.0150461
0.01922
0.013204
0.0168126
0.0130402
0.0135031
0.01478
0.0163904
0.0188595
0.0224286
0.0242192
0.0277027
0.0310113
0.0418924
0.0406393
0.0454773
0.0506589
0.0554367
0.0597027
0.0634431
0.0663642
0.0688598
0.0727331
0.0762813
0.0577412
0.146024
0.149931
0.134047
0.0927025
0.0947296
0.0629637
0.0418533
0.0538255
0.058147
0.0407552
0.0436368
0.0412964
0.0773195
0.0606661
0.0870601
0.0692617
0.0420963
0.0299048
0.0185178
0.0116047
0.00888312
0.00661322
0.00532297
0.00781493
0.00797539
0.00803475
0.00402756
0.00819216
0.00354597
0.00330125
0.00328652
0.00316904
0.00310108
0.00320298
0.00323472
0.00313267
0.00301619
0.00800998
0.0025802
0.00791814
0.0077775
0.00794057
0.000956818
0.000936385
0.00122763
0.00283157
0.00410765
0.00418337
0.00353465
0.00269583
0.00260986
0.00281028
0.00293598
0.00360162
0.00407226
0.00446133
0.00639143
0.00774661
0.010772
0.0134343
0.0176461
0.0172652
0.0186861
0.0206412
0.0223332
0.023183
0.0229311
0.0222123
0.0216265
0.0214012
0.0212109
0.0207061
0.0198361
0.0187806
0.017494
0.016514
0.0157582
0.0148205
0.0145548
0.0143976
0.0148223
0.0161052
0.0180479
0.0203681
0.0226297
0.0257066
0.0291885
0.0325704
0.0377638
0.0424634
0.047124
0.0520777
0.056757
0.0609152
0.0646539
0.0675252
0.070055
0.0738764
0.0773
0.0326539
0.0957622
0.11222
0.111031
0.092045
0.0690703
0.0386617
0.0298307
0.0347293
0.0335902
0.0238734
0.0373828
0.0482426
0.0374721
0.0479828
0.0439228
0.0466382
0.0312433
0.0193928
0.0112964
0.0120986
0.00751665
0.00626011
0.00454155
0.0079261
0.00379344
0.00366137
0.0035793
0.00844829
0.0029975
0.00838182
0.00859231
0.00248249
0.00227628
0.00884321
0.00233114
0.00231193
0.00231427
0.00215898
0.00816315
0.00159257
0.00121777
0.000977254
0.00866224
0.00122472
0.0031072
0.0046119
0.00449239
0.00449297
0.00447429
0.00430608
0.00423588
0.00451555
0.00520357
0.00587968
0.00696408
0.00767179
0.0100897
0.0109047
0.0128392
0.0149257
0.0194486
0.021395
0.0223937
0.0254655
0.0257927
0.0261973
0.0256547
0.0263539
0.025309
0.0233975
0.0231282
0.0225445
0.021604
0.0205371
0.0192916
0.0181207
0.0173739
0.0164954
0.0161208
0.0159169
0.0162456
0.0190021
0.0196573
0.0219618
0.024359
0.0272823
0.0307837
0.034309
0.046167
0.0443432
0.0488064
0.053559
0.0581512
0.0622048
0.0659472
0.0687892
0.0713032
0.0750716
0.0783818
0.026712
0.0597446
0.0790738
0.0876724
0.0724675
0.049098
0.0318007
0.0263
0.0240016
0.0200098
0.0163567
0.0206485
0.0314743
0.0392596
0.0320228
0.0385376
0.0291407
0.0253175
0.0154052
0.010606
0.00780307
0.0110221
0.0104448
0.00830099
0.00801382
0.00345174
0.00329143
0.00353326
0.00366264
0.00328268
0.00892661
0.00300009
0.00264795
0.00853187
0.00233268
0.00222984
0.00804447
0.00179197
0.00160255
0.00142713
0.00121056
0.00848187
0.00105225
0.00133229
0.00808436
0.00507363
0.00652528
0.00599905
0.00668225
0.006835
0.00660586
0.00782946
0.00822849
0.00776345
0.00865827
0.00957887
0.0105951
0.0125073
0.014565
0.0189795
0.0215973
0.0284644
0.0255023
0.0279817
0.0278633
0.0290615
0.0291934
0.0284201
0.0273019
0.0262051
0.0276667
0.025131
0.0245116
0.0234757
0.0223337
0.0209984
0.0200268
0.0192898
0.0182618
0.0199845
0.017549
0.0178085
0.019382
0.0213337
0.023671
0.026145
0.0289761
0.032493
0.0362253
0.0415016
0.0462842
0.0505159
0.0552727
0.0596239
0.0635856
0.0673155
0.0701462
0.0726076
0.07632
0.0795273
0.0250166
0.0383837
0.0573658
0.0683733
0.0600411
0.0471713
0.0377188
0.0292799
0.0219186
0.0159019
0.010299
0.0169094
0.0193259
0.0211473
0.027835
0.0245196
0.0193216
0.0144051
0.0113841
0.00929401
0.0073153
0.0160389
0.00585045
0.0048622
0.0037205
0.00329986
0.00288371
0.00986258
0.00463058
0.0100712
0.00476262
0.00469062
0.00925252
0.00311269
0.00838093
0.00213595
0.00170149
0.00155804
0.00150968
0.00121177
0.00109447
0.00120707
0.00215067
0.00903847
0.00602455
0.00593613
0.00990932
0.0117672
0.0125238
0.0127782
0.0145477
0.0147039
0.0148531
0.0111501
0.0165812
0.01334
0.0168617
0.0220619
0.0211632
0.0236203
0.0261738
0.0282202
0.0297886
0.0304299
0.0315043
0.0323209
0.0322054
0.0312319
0.0300012
0.0287481
0.0277983
0.0272075
0.026557
0.0254379
0.0242398
0.0227798
0.0230611
0.0211347
0.0203341
0.0198012
0.0195266
0.0197421
0.0223441
0.0231771
0.0254892
0.0280147
0.0307854
0.0343476
0.0382668
0.0435884
0.0482698
0.0522924
0.0570312
0.0612943
0.0650466
0.0687543
0.071584
0.0740112
0.0776205
0.0807345
0.0246155
0.0295887
0.0414182
0.0525442
0.0512338
0.0464304
0.044232
0.0386317
0.0267044
0.0160808
0.0105516
0.00713633
0.00916383
0.0132721
0.0154649
0.0126312
0.0105529
0.012651
0.00811287
0.00758555
0.00703432
0.00716237
0.00658518
0.00538421
0.00435377
0.010822
0.00392708
0.00461366
0.00552548
0.00593297
0.00596412
0.00551597
0.00512209
0.00449709
0.00357615
0.00200072
0.00157925
0.00745348
0.00141427
0.00145389
0.00168503
0.00245246
0.00924614
0.00701619
0.00758527
0.0119566
0.0189801
0.0161678
0.0170044
0.0172241
0.017227
0.0177732
0.0179832
0.0180043
0.0190355
0.020487
0.0221298
0.0239183
0.025833
0.0283961
0.0307984
0.0325889
0.0338306
0.0344192
0.0389785
0.0356531
0.0353759
0.0342124
0.032817
0.0313601
0.0302479
0.0295291
0.0287079
0.0274923
0.0262235
0.0247362
0.0237563
0.023045
0.0222925
0.0218212
0.0214301
0.0215877
0.02313
0.0251493
0.0273976
0.0299853
0.0328381
0.0416885
0.0403681
0.045712
0.0503071
0.0543456
0.0589031
0.0630333
0.0668005
0.0702701
0.0730864
0.0754809
0.0789882
0.0819941
0.0247377
0.0276723
0.0334859
0.0409523
0.0430568
0.0438606
0.0465536
0.0469693
0.0383034
0.0232282
0.0121838
0.00561428
0.00522791
0.0144362
0.00955386
0.00855779
0.00875293
0.00754928
0.013502
0.00694564
0.0188262
0.00823232
0.00778047
0.00624
0.0175976
0.0169074
0.00459826
0.0119317
0.00645824
0.00728997
0.00726986
0.00643222
0.00939802
0.00540016
0.00431413
0.00327707
0.00658935
0.00156282
0.00172217
0.00701037
0.00280747
0.00895727
0.00776107
0.011495
0.0142423
0.0171325
0.0197006
0.0213179
0.0220001
0.0221082
0.0243356
0.0230269
0.0232306
0.0267417
0.0274638
0.0256622
0.0274713
0.029256
0.0332996
0.0330262
0.0351338
0.0367827
0.0378522
0.038346
0.0388097
0.0391918
0.0387131
0.0373518
0.0357722
0.0340791
0.0372938
0.0319875
0.0310065
0.0296662
0.0283005
0.0268098
0.0258623
0.0250781
0.0243435
0.0239287
0.0247941
0.0248773
0.0252712
0.0272374
0.0294255
0.0321117
0.0349953
0.0385562
0.0427381
0.0479002
0.052395
0.0564447
0.0608258
0.0648323
0.0685455
0.0718749
0.0746467
0.0771295
0.0804412
0.0833568
0.0251515
0.0285015
0.03285
0.0377684
0.0421649
0.0481587
0.0541469
0.0560211
0.0512838
0.0368144
0.0205757
0.00668436
0.00603953
0.00594563
0.00698683
0.00672696
0.00659923
0.00761465
0.00745273
0.00886158
0.0102192
0.0108849
0.0186287
0.00843286
0.00702022
0.0129032
0.00559323
0.00952705
0.00797218
0.00908164
0.00852244
0.00721095
0.00673141
0.00613737
0.00531695
0.0044839
0.00393928
0.00222406
0.00284437
0.00394269
0.00632579
0.0110545
0.0123527
0.0155209
0.020175
0.0250423
0.0252972
0.0265855
0.027052
0.0270611
0.0292143
0.0284781
0.0287012
0.0287485
0.0296639
0.0310451
0.0327056
0.0343518
0.0357613
0.0424059
0.0394661
0.0410389
0.0420528
0.0424501
0.0429595
0.042982
0.0422693
0.0407225
0.0389409
0.037117
0.0355898
0.0345771
0.0334434
0.0319824
0.0305071
0.0289918
0.0280399
0.0272043
0.0265008
0.0261226
0.025683
0.0274415
0.0275024
0.0294566
0.031586
0.0343728
0.0373172
0.0409595
0.0451398
0.0501477
0.0545611
0.0585705
0.0628178
0.066685
0.0703039
0.0735374
0.0762698
0.0787869
0.0819418
0.084812
0.0258673
0.0308246
0.0367991
0.0424249
0.0500712
0.0606332
0.0685403
0.0694732
0.0642239
0.0521078
0.0340334
0.0197396
0.0113634
0.00871571
0.00769802
0.00795073
0.019015
0.0203869
0.0108207
0.0225052
0.0147932
0.0149062
0.0132517
0.01165
0.0104598
0.00985503
0.00919534
0.00759434
0.00785328
0.00835554
0.00899957
0.00808454
0.00784607
0.00620815
0.00510872
0.00472433
0.00456427
0.00737016
0.00641514
0.0103892
0.0122464
0.0149679
0.0175784
0.0236456
0.0265248
0.0295789
0.0353719
0.0321783
0.0366691
0.0321705
0.0366596
0.033831
0.0340453
0.0341419
0.0389709
0.036293
0.0378807
0.0394451
0.0409625
0.0424866
0.044051
0.0455198
0.0465308
0.0549325
0.0472322
0.0469554
0.0460447
0.0442686
0.0422576
0.0402601
0.0386262
0.0373403
0.0360545
0.0344254
0.0328588
0.0313201
0.03028
0.0294168
0.0287331
0.0283922
0.0280712
0.0281763
0.0325755
0.0317805
0.0338897
0.0367466
0.0398106
0.0435053
0.0475748
0.0524674
0.0567673
0.0607196
0.0648555
0.0685915
0.0721276
0.0752508
0.0779454
0.080473
0.0835017
0.0863148
0.0270647
0.034802
0.0442303
0.0535127
0.0656328
0.0799412
0.088339
0.0864526
0.0780553
0.0655407
0.0486501
0.0321582
0.0209986
0.0163374
0.0134555
0.0214433
0.0152824
0.0173114
0.0233915
0.0187581
0.0202765
0.0193859
0.0177066
0.0166656
0.0138741
0.0109214
0.0091358
0.00852063
0.0102841
0.0102712
0.0109101
0.0104093
0.00926991
0.00770403
0.00572849
0.00589428
0.00486224
0.00639156
0.00817922
0.0156762
0.0168299
0.0225737
0.0250797
0.0334808
0.0387632
0.0367386
0.0380841
0.0384695
0.0383738
0.0436281
0.0389657
0.0395459
0.03968
0.0397497
0.0404647
0.0417317
0.0433057
0.04485
0.046331
0.0477958
0.0489285
0.0501723
0.0512662
0.0513399
0.0516848
0.0511505
0.0499476
0.0479831
0.045755
0.0435394
0.0417258
0.0403065
0.0388196
0.0370498
0.0353606
0.0337828
0.0326468
0.0317354
0.031052
0.0307538
0.0305375
0.0307636
0.0322612
0.0342474
0.0362816
0.039272
0.0423892
0.0461396
0.050144
0.0548482
0.05905
0.0629228
0.0669311
0.0705384
0.0739927
0.0770219
0.0796665
0.0821939
0.0851114
0.0878606
0.0291183
0.0416957
0.0573318
0.0720899
0.0876934
0.103361
0.110305
0.104878
0.0921093
0.0772368
0.061039
0.0448226
0.0321277
0.0256534
0.0232381
0.024726
0.0260107
0.0268456
0.0246057
0.0249628
0.0247013
0.0234103
0.0213262
0.0188167
0.0162365
0.0133366
0.0118146
0.0110483
0.0126538
0.0128331
0.0167416
0.0125901
0.0111744
0.00951834
0.00760656
0.00746117
0.00716222
0.0110158
0.0125986
0.0181526
0.0238191
0.029037
0.0334667
0.0379233
0.0417808
0.044851
0.0459869
0.0542614
0.0453029
0.0445906
0.0457234
0.0459453
0.0459178
0.0459054
0.0465974
0.0476408
0.0491807
0.0506726
0.0617041
0.0533326
0.0540453
0.065682
0.0561514
0.0562917
0.0563103
0.0554861
0.0540136
0.0518291
0.0494117
0.046917
0.0449137
0.0434125
0.041727
0.0398207
0.0380503
0.0363689
0.0351476
0.0342106
0.0335097
0.0332363
0.0331025
0.0334706
0.0349121
0.0368335
0.0389767
0.0419226
0.0450928
0.0488175
0.0528472
0.0572833
0.0613548
0.0651811
0.0690447
0.0725556
0.0758926
0.0788381
0.0814391
0.0839636
0.0867538
0.0894572
0.0329108
0.0536244
0.0784217
0.097476
0.114368
0.128379
0.132048
0.122907
0.106142
0.0879201
0.0710968
0.0558074
0.0433327
0.0361801
0.0331838
0.0334195
0.0339976
0.0338272
0.0326412
0.0325845
0.0316507
0.0297949
0.0280602
0.026221
0.0245559
0.0210941
0.0218238
0.0170906
0.01969
0.0218688
0.0182698
0.0168555
0.0136628
0.0118508
0.0102897
0.0103434
0.0114224
0.0152579
0.0194217
0.0258225
0.0325386
0.0381871
0.0430003
0.0476541
0.0616547
0.053573
0.0543886
0.0530758
0.0528593
0.0521722
0.052964
0.0529027
0.0527228
0.0525884
0.0531503
0.053963
0.0554337
0.0568645
0.057753
0.0590616
0.0594014
0.0598908
0.061232
0.0613141
0.0610079
0.0598865
0.0581643
0.0558017
0.0532311
0.0505991
0.0481355
0.046623
0.044787
0.0427623
0.0408821
0.0391519
0.0378169
0.0368148
0.0361118
0.0358777
0.0358218
0.0363102
0.0376252
0.039583
0.0417941
0.0446891
0.0478997
0.0516948
0.0555932
0.0598055
0.0637035
0.0674778
0.0711801
0.0746264
0.0778392
0.0806962
0.0832532
0.0857807
0.0884235
0.0911076
0.0404124
0.0755956
0.108728
0.129128
0.143028
0.152452
0.152201
0.140116
0.120172
0.0986882
0.0801211
0.0651238
0.0535565
0.0466541
0.0432926
0.0429253
0.0427123
0.0419438
0.0406958
0.0397713
0.0383455
0.0362772
0.035656
0.0347879
0.0346013
0.0341066
0.0306872
0.0340987
0.0282218
0.0282832
0.0268399
0.0235813
0.0182371
0.0151273
0.0145757
0.0155019
0.0174359
0.0221599
0.0283161
0.0350266
0.0421374
0.0481076
0.0533547
0.0579526
0.0607281
0.0627781
0.0631112
0.0616143
0.0609321
0.0599783
0.0605652
0.0602887
0.0599428
0.0596861
0.0600456
0.0605647
0.0620001
0.0633169
0.064087
0.0649777
0.0649147
0.0654401
0.0664901
0.066441
0.0658137
0.0644115
0.0624376
0.0598662
0.057147
0.0543489
0.0618709
0.0499596
0.047956
0.0458593
0.0438858
0.0420669
0.0406658
0.0396108
0.0388952
0.0386405
0.0386585
0.0392417
0.0406363
0.0424913
0.0446785
0.0475815
0.0507657
0.0546012
0.0583831
0.0623573
0.0661069
0.0698122
0.0733675
0.0767288
0.079816
0.0825997
0.0851358
0.0876253
0.090239
0.0927981
0.0544344
0.110393
0.146733
0.162336
0.16965
0.173229
0.169824
0.156421
0.134687
0.110433
0.0894432
0.0740347
0.0630683
0.0565693
0.0533325
0.052316
0.0513575
0.0499192
0.0482822
0.0470277
0.0458127
0.0436813
0.0470484
0.0462005
0.0512473
0.0493101
0.0475427
0.0437681
0.046784
0.0393602
0.0352265
0.0291283
0.0247708
0.0207559
0.0205622
0.0225586
0.025675
0.0319088
0.0386498
0.0455477
0.0646233
0.0585171
0.0635187
0.0683486
0.0709791
0.0720967
0.0719518
0.070339
0.0693506
0.0683181
0.0684483
0.0679569
0.0674715
0.0670837
0.0672108
0.0814202
0.068779
0.0699712
0.070527
0.0710213
0.0710077
0.071223
0.0718306
0.0715949
0.0706637
0.068975
0.0667554
0.0640104
0.0611743
0.0581727
0.055362
0.0534107
0.0512852
0.0490728
0.0470371
0.0451568
0.0436478
0.0425526
0.0418712
0.0416223
0.0416855
0.0423707
0.0437544
0.0455326
0.047694
0.0505583
0.0537973
0.0575473
0.0612351
0.0649544