/*--------------------------------*- C++ -*----------------------------------*\
  =========                 |
  \\      /  F ield         | OpenFOAM: The Open Source CFD Toolbox
   \\    /   O peration     | Website:  https://openfoam.org
    \\  /    A nd           | Version:  6
     \\/     M anipulation  |
\*---------------------------------------------------------------------------*/
FoamFile
{
    version     2.0;
    format      ascii;
    class       volScalarField;
    location    "0.1";
    object      OH;
}
// * * * * * * * * * * * * * * * * * * * * * * * * * * * * * * * * * * * * * //

dimensions      [0 0 0 0 0 0 0];

internalField   nonuniform List<scalar> 
8000
(
6.67437e-08
3.34682e-05
0.000255253
0.000628789
0.000642056
0.000602906
0.000408835
0.00017862
5.07059e-05
7.0245e-06
6.37047e-07
2.1251e-07
7.52135e-07
3.41296e-05
2.37637e-05
1.89158e-05
0.000371692
0.000194175
0.000962124
0.000337675
0.000397866
0.000833638
0.0015716
0.001289
0.000412417
0.000144194
0.000107869
0.000143334
0.000230943
0.000121375
0.000186209
0.000822829
0.00126373
0.00142883
0.00138351
0.00127085
0.0011855
0.00119307
0.00129814
0.00129653
0.00130095
0.00129499
0.00134008
0.00135217
0.00119545
0.000789474
0.000366603
0.000128755
4.34246e-05
7.29453e-05
5.07971e-06
5.5614e-06
4.87405e-06
4.43689e-06
3.81892e-06
3.09121e-06
2.49315e-06
2.10134e-06
1.87611e-06
1.79046e-06
2.56106e-06
5.75793e-06
1.15001e-05
3.96927e-05
8.09016e-05
0.000131626
0.000207019
0.000231203
0.000286399
0.000324774
0.00038139
0.000433885
0.000424501
0.000631948
0.000622653
0.000396668
0.000398672
0.000369786
0.000322515
0.000300433
0.000341005
0.000347429
0.000405804
0.000649246
0.000774904
0.000934329
0.00107004
0.00118122
0.00116242
0.00138944
0.00148221
0.00154996
0.00159502
0.00162139
0.00162179
0.00161187
0.00159577
0.00158077
0.00158606
0.00148841
5.54129e-08
3.89266e-05
0.000291086
0.000641897
0.000594351
0.00060579
0.000390891
0.000170997
4.55579e-05
5.44182e-06
4.85147e-07
2.63992e-07
1.80151e-06
0.000213658
0.000155817
4.31581e-05
9.72885e-05
0.00038586
0.000470163
0.000501685
0.000536157
0.0009437
0.00158991
0.00122361
0.000375504
0.000129749
9.87274e-05
0.000137103
0.000236326
0.000334456
0.000573336
0.000923002
0.00128465
0.0014214
0.00138912
0.00130253
0.00122815
0.00122386
0.001312
0.000727166
0.00130904
0.00129713
0.00132864
0.00132205
0.00115016
0.000742425
0.000340139
0.000117699
4.11084e-05
2.06642e-05
8.49342e-06
6.20954e-06
4.64343e-06
4.24891e-06
3.68126e-06
3.00932e-06
2.45394e-06
2.09007e-06
1.88293e-06
1.81236e-06
2.88168e-06
6.26932e-06
1.22109e-05
4.24427e-05
8.56799e-05
0.00013702
0.000213052
0.000235738
0.000290277
0.000330579
0.000354746
0.000439776
0.000426406
0.00063695
0.000626761
0.000398327
0.000402143
0.000372357
0.000325727
0.000300307
0.000343357
0.000348383
0.000408617
0.000652136
0.0007748
0.000936307
0.00107178
0.00118245
0.00126984
0.0013903
0.00148248
0.00155001
0.00159487
0.00162113
0.00162104
0.00161122
0.00159497
0.00157992
0.0015858
0.00148736
8.19356e-08
7.04583e-05
0.000460323
0.000719627
0.000581305
0.000485895
0.000277433
0.00031367
0.000170763
5.03331e-06
4.30728e-06
3.00725e-07
3.6757e-06
0.000815722
0.00071635
0.000142537
4.88556e-05
9.35051e-05
0.00114045
0.00103225
0.0011519
0.00121777
0.00161342
0.00108791
0.000307114
9.6188e-05
8.23545e-05
0.000123616
0.00023187
0.000406049
0.000630783
0.000978871
0.00128401
0.00139315
0.00137094
0.00132038
0.00128321
0.00125486
0.00126848
0.0012676
0.00126
0.00126513
0.00129459
0.0012547
0.00105508
0.000646376
0.000284121
9.32293e-05
3.47006e-05
1.58085e-05
7.87632e-06
5.29121e-06
3.98721e-06
3.79743e-06
3.41362e-06
2.85554e-06
2.3724e-06
2.0635e-06
1.8966e-06
2.11098e-06
3.61084e-06
7.41652e-06
1.37893e-05
4.90356e-05
9.59808e-05
0.000148754
0.000214489
0.000246082
0.000298439
0.00034275
0.000374402
0.000450878
0.000545622
0.000648097
0.000635646
0.000494098
0.000409788
0.000377974
0.000332677
0.000353915
0.000348635
0.000350417
0.000415006
0.000658066
0.000752628
0.000940707
0.00107546
0.00118509
0.00127978
0.00139195
0.00148305
0.0015501
0.0015559
0.00157344
0.00161938
0.00160978
0.00159323
0.00157806
0.00142268
0.00148506
2.02202e-07
0.000138624
0.00049403
0.000621408
0.000482997
0.000331653
0.000169173
6.55992e-05
1.17662e-05
7.97422e-07
7.97427e-08
9.73184e-08
1.22213e-06
0.000494654
6.56761e-05
0.000275904
3.16701e-05
4.44032e-05
0.000515257
0.00089425
0.000819404
0.00125215
0.00156338
0.000889389
0.000239163
1.81536e-05
6.64451e-05
0.000107169
0.000208419
0.000383151
0.000628207
0.000968795
0.00123445
0.0013286
0.00129174
0.000757927
0.00126829
0.000907279
0.00122554
0.00121033
0.00121425
0.00121881
0.00122627
0.00114648
0.000881022
0.000483185
0.000211658
7.06805e-05
2.82583e-05
1.32319e-05
6.65744e-06
4.17018e-06
5.64219e-07
3.30071e-06
3.12863e-06
2.67931e-06
2.26146e-06
2.02812e-06
2.00551e-06
2.73729e-06
4.7446e-06
8.31217e-06
1.62545e-05
6.11465e-05
0.000110793
0.000166655
0.000233609
0.00026283
0.000309729
0.000359945
0.000474989
0.000630111
0.000627444
0.000665646
0.000648846
0.000430027
0.00042151
0.000386401
0.000343028
0.000325737
0.000356967
0.000353334
0.000425247
0.00066601
0.000797191
0.000947599
0.00108094
0.001189
0.00128758
0.00139424
0.0014839
0.00155021
0.00159358
0.00161874
0.00161687
0.00160758
0.00159056
0.00157523
0.00156746
0.00148148
1.41203e-07
0.000337159
5.59506e-05
0.00072777
0.000436489
0.000228544
8.8798e-05
2.01893e-05
1.96159e-06
1.02577e-07
1.149e-07
7.08857e-09
8.94734e-09
0.000187473
0.000401528
6.36903e-05
1.70701e-05
3.10874e-05
0.000199994
0.000420044
0.000743116
0.00136226
0.00140575
0.000653917
0.000195007
7.56141e-05
7.26899e-05
9.6475e-05
0.000172204
0.000324876
0.000562791
0.000887605
0.00113191
0.00123062
0.00124371
0.00124245
0.00124826
0.00121695
0.0011667
0.000677423
0.0011359
0.00111189
0.00109253
0.000964359
0.000699957
0.000336226
0.000124701
4.69528e-05
2.14508e-05
1.01655e-05
5.64125e-06
4.20605e-06
3.6649e-06
3.17213e-06
2.92381e-06
2.51284e-06
2.13772e-06
2.02092e-06
2.78094e-06
3.92669e-06
6.34041e-06
1.05056e-05
2.45818e-05
7.79104e-05
0.00013101
0.000208262
0.000259198
0.000287586
0.000377623
0.000381223
0.000416353
0.000656458
0.000667155
0.00068803
0.00066587
0.000455065
0.000436508
0.000397486
0.000356315
0.000345986
0.000367706
0.000436773
0.000439738
0.000626455
0.000814683
0.000956511
0.00108819
0.0011941
0.00129554
0.00139712
0.00148501
0.00155032
0.00159227
0.00161678
0.00161363
0.00160461
0.001587
0.00157151
0.00155314
0.00147689
5.49578e-08
0.000196159
0.000686417
0.000636568
0.000282029
0.000129203
3.38756e-05
6.88996e-05
2.95153e-07
2.14031e-08
1.02222e-08
2.70077e-08
1.57097e-07
3.72625e-05
6.07094e-05
1.85295e-06
3.64187e-06
4.09522e-06
4.22283e-05
0.000359023
0.000898034
0.00152556
0.000681154
0.000287612
0.000147662
7.77624e-05
7.32495e-05
8.91613e-05
0.000130985
0.000256442
0.000465188
0.00075724
0.000957646
0.00109455
0.00114142
0.00116608
0.00117017
0.00114545
0.00109278
0.000997313
0.000991168
0.00085089
0.000679781
0.000766073
0.000485975
0.000206145
6.86453e-05
3.26874e-05
1.67974e-05
3.30694e-06
5.08463e-06
4.10406e-06
7.33069e-07
2.92361e-06
2.71943e-06
2.3609e-06
2.16824e-06
2.75365e-06
3.75366e-06
5.76396e-06
8.34248e-06
1.66704e-05
3.75384e-05
0.000102416
0.000158192
0.000240672
0.00029093
0.000321093
0.00035662
0.000406443
0.000444114
0.000688296
0.000705167
0.000713862
0.000686338
0.000479175
0.000454207
0.000411142
0.000372062
0.000363446
0.000380628
0.000458856
0.000620102
0.000706776
0.000830179
0.000967269
0.00109711
0.00120015
0.00130335
0.0014005
0.00148634
0.00155041
0.00159087
0.0015527
0.00160969
0.00160034
0.00158259
0.00156688
0.00154118
0.00147143
1.26967e-08
0.000125681
0.000640879
0.000419219
0.000129978
5.22564e-05
9.99481e-05
2.34758e-05
6.23036e-07
2.29704e-08
2.04747e-08
9.29935e-08
1.24984e-07
9.03531e-06
1.4168e-05
1.22144e-05
2.62185e-05
6.35619e-05
0.000169159
0.000481386
0.00108281
0.00152965
0.000849912
0.000306399
0.000124464
3.21994e-05
3.61675e-05
7.91308e-05
6.43522e-05
0.000180091
0.000340687
0.000561779
0.000766711
0.000891578
0.000961605
0.00100711
0.00105005
0.00100784
0.00094802
0.000803307
0.000610795
0.000783345
0.000764545
0.000589531
0.000348132
0.000110674
2.55627e-05
2.4907e-05
1.44903e-05
8.29096e-06
5.31932e-06
3.79955e-06
9.41901e-07
2.73196e-06
2.66025e-06
2.69903e-06
2.86634e-06
3.40931e-06
5.54452e-06
8.42229e-06
1.4669e-05
2.94875e-05
8.86381e-05
0.000129457
0.0001959
0.000266883
0.000328615
0.000361613
0.000390328
0.000434155
0.000471338
0.000724012
0.000742448
0.000743124
0.000709677
0.0006741
0.000474321
0.000427491
0.000389836
0.000459744
0.000395571
0.000400689
0.000648651
0.000736457
0.0008447
0.000979746
0.00110762
0.00113211
0.00131025
0.00140318
0.00148788
0.00155044
0.00158925
0.00161201
0.00160509
0.00159525
0.00157731
0.00156133
0.00153049
0.00146515
5.21836e-09
2.93443e-05
0.000298927
0.000119458
3.71062e-05
8.94898e-06
2.62703e-05
5.04417e-07
5.02572e-08
3.33539e-08
7.65442e-09
1.15834e-07
4.6402e-06
4.88819e-06
1.02473e-05
1.60482e-05
4.53644e-05
0.000121106
0.000284145
0.000679215
0.00144966
0.000826464
0.000555028
0.000185957
9.96123e-05
6.13066e-05
6.38523e-05
7.00269e-05
8.60705e-05
0.000132592
0.000155061
0.0003732
0.000516745
0.000634539
0.000704926
0.000625462
0.000840492
0.000836116
0.000738308
0.000673834
0.000686564
0.0007289
0.000655965
0.000455286
0.000252512
9.4168e-05
4.1214e-05
2.23221e-05
1.31823e-05
8.2105e-06
5.72931e-06
4.22646e-06
1.90994e-06
3.18247e-06
3.27688e-06
3.48231e-06
3.82978e-06
4.9797e-06
8.31513e-06
1.65952e-05
2.52128e-05
6.14398e-05
0.000112412
0.000165606
0.000226617
0.000310391
0.00037139
0.000407708
0.000424965
0.000566217
0.000614266
0.000763552
0.000781318
0.000774925
0.000674805
0.00070722
0.000663421
0.000446916
0.000408992
0.000484637
0.000412499
0.000425544
0.000680269
0.000765115
0.000861648
0.000993788
0.00111961
0.00121778
0.00131678
0.00140608
0.0014888
0.00155043
0.00158732
0.0016072
0.00159986
0.00158936
0.00157118
0.00155495
0.00152057
0.00145811
8.88651e-10
6.37858e-06
9.86144e-05
8.47717e-05
4.8869e-06
6.73797e-07
2.74279e-07
6.30725e-08
4.44636e-08
1.25192e-07
1.51649e-08
6.36482e-07
6.91205e-05
5.79486e-05
2.17601e-05
1.61709e-05
5.10121e-05
0.000269766
0.000363657
0.000988758
0.00156068
0.00136575
0.000647695
0.000221819
3.62108e-05
2.02211e-05
5.67548e-05
6.19517e-05
3.94948e-05
0.000103478
0.000151925
0.000231957
0.000280276
0.000358708
0.000459965
0.000510858
0.000412981
0.000577996
0.000505441
0.000393523
0.00056818
0.000577414
0.000483643
0.000330856
0.000178516
7.93095e-05
3.92619e-05
1.9592e-05
1.20671e-05
8.29958e-06
6.53459e-06
5.33344e-06
4.4809e-06
3.89169e-06
4.18039e-06
4.55045e-06
4.98404e-06
7.44271e-06
1.81721e-05
3.21172e-05
5.38659e-05
0.000109375
0.000156362
0.000210464
0.000294768
0.000359509
0.000418842
0.000458265
0.000549683
0.000513653
0.000736433
0.000807401
0.000821031
0.000808752
0.000773323
0.000741616
0.000694377
0.000470054
0.000520356
0.000428654
0.000532762
0.000560296
0.000713032
0.0007941
0.00087851
0.00101019
0.0011329
0.00122925
0.00132345
0.00140929
0.00148941
0.00155034
0.00158485
0.00160211
0.00159407
0.00158269
0.00156413
0.00154777
0.00151115
0.00145035
6.6594e-11
5.25016e-07
5.33236e-06
1.75273e-05
3.19127e-07
5.16191e-08
9.03504e-08
4.05669e-08
6.84605e-09
2.97575e-08
2.53556e-06
2.46936e-06
0.000362068
0.000561552
0.000160871
0.000130622
0.000211155
0.000521687
0.000908514
0.00117087
0.00117613
0.00121419
0.000613866
0.000220375
8.89202e-05
2.52196e-05
5.50614e-05
5.86526e-05
6.6672e-05
8.54216e-05
0.000106042
0.000129834
0.000106919
7.46128e-05
0.000138429
0.00026935
0.000318562
0.000338003
0.000343216
0.000368154
0.000416496
0.000416198
0.000336302
0.00021814
0.000119063
6.25905e-05
3.31313e-05
1.72906e-05
1.14961e-05
8.99334e-06
7.78759e-06
7.14288e-06
6.59054e-06
5.71746e-06
6.20039e-06
6.73493e-06
8.13795e-06
1.81788e-05
3.22392e-05
5.27317e-05
6.86734e-05
0.000148014
0.000205012
0.000257965
0.000377489
0.000470514
0.000470202
0.000512659
0.000614288
0.000745474
0.000801158
0.000853341
0.000860022
0.000844529
0.000812067
0.000777238
0.000665064
0.000610006
0.000457629
0.000458705
0.000463514
0.000650302
0.000746211
0.000824058
0.000913987
0.00103918
0.00114734
0.00124114
0.00133023
0.00141264
0.00148989
0.00155016
0.00158215
0.00159691
0.00158835
0.00157525
0.00155609
0.0015398
0.00150194
0.00144192
4.20969e-12
5.15596e-08
2.03161e-06
1.67753e-06
3.81641e-08
2.3112e-08
4.75985e-08
7.27717e-09
1.29402e-08
1.61288e-07
1.22435e-06
1.35883e-05
0.00118424
0.00125533
0.000514739
0.000288199
0.000173046
0.000734673
0.0013622
0.00162789
0.00148006
0.00103253
0.000498508
0.000203232
9.41495e-05
5.86708e-05
5.04259e-05
5.36994e-05
5.80159e-05
6.50969e-05
7.36427e-05
7.34243e-05
6.88415e-05
8.59315e-05
0.000116363
6.97681e-05
0.000144409
9.09449e-05
0.000187985
0.000139261
0.000242206
0.00026147
0.000206551
0.000117988
7.82471e-05
4.68943e-05
2.81899e-05
1.68709e-05
1.10778e-05
1.05691e-05
1.01963e-05
9.81662e-06
9.47043e-06
8.51876e-06
1.04437e-05
1.22309e-05
2.02133e-05
3.06569e-05
5.29939e-05
7.86568e-05
0.000162578
0.000189607
0.00025713
0.000340015
0.000407863
0.000484097
0.000524797
0.000569502
0.000760022
0.000731588
0.000861994
0.000897014
0.000899287
0.000880771
0.000850577
0.000812904
0.000765381
0.000702805
0.000486768
0.000601507
0.000662592
0.000696249
0.000780596
0.000854257
0.000946231
0.00105866
0.00116277
0.00125334
0.00133748
0.00138638
0.00149032
0.00154945
0.00157924
0.00159145
0.00158233
0.00156708
0.00154735
0.00153102
0.00149057
0.0014328
4.97412e-10
5.17628e-09
9.50092e-08
1.11883e-07
1.03646e-07
1.07976e-08
4.82991e-07
1.57979e-07
4.40405e-07
9.90677e-07
3.73688e-06
0.000102493
0.0010033
0.000906399
0.000921974
0.000425587
0.000442345
0.00087404
0.00172716
0.00102771
0.00128487
0.000760396
0.00026724
0.000166914
9.08587e-05
2.66465e-05
1.83155e-05
4.76106e-05
4.67413e-05
2.44736e-05
5.06833e-05
5.22653e-05
5.11506e-05
5.52025e-05
6.5422e-05
7.53839e-05
8.65113e-05
8.27079e-05
7.01266e-05
0.000111273
0.000130792
0.000131553
0.000100699
6.79366e-05
4.81923e-05
3.55632e-05
2.47674e-05
2.00564e-05
1.69992e-05
1.35637e-05
1.6542e-05
1.68957e-05
1.6621e-05
1.25026e-05
1.88194e-05
2.53481e-05
3.39968e-05
5.1899e-05
7.88804e-05
0.000176648
0.000218694
0.000233151
0.000313936
0.000394479
0.000476922
0.000552359
0.000680083
0.000728974
0.000842155
0.000876777
0.000917884
0.000941054
0.000939425
0.000918178
0.000887621
0.000849549
0.000805005
0.000747919
0.000683927
0.000694715
0.000705605
0.000739044
0.000815634
0.000885353
0.000976387
0.00107924
0.00117892
0.00126574
0.00134458
0.00142052
0.00149051
0.00150887
0.00157606
0.00158548
0.00157587
0.00155828
0.00153785
0.00152163
0.0014781
0.00142306
5.74235e-10
1.0131e-09
1.34564e-08
2.27411e-07
1.47408e-06
2.85797e-07
6.55041e-06
2.6109e-06
3.24056e-05
6.93821e-05
0.000105282
0.000247128
0.00108315
0.00157773
0.00101119
0.000512589
0.000570175
0.00104454
0.00176418
0.00153483
0.00107686
0.000520101
0.000141162
0.00013226
8.44442e-05
3.55883e-05
5.0536e-05
4.92274e-05
1.45086e-05
4.05052e-05
1.72208e-05
4.27134e-05
4.39143e-05
4.51e-05
4.79757e-05
4.9208e-05
5.04143e-05
5.15512e-05
5.58307e-05
5.47562e-05
3.99215e-05
4.86549e-05
5.78581e-05
3.82202e-05
2.3032e-05
2.86286e-05
2.54447e-05
2.85226e-05
2.67064e-05
2.01544e-05
2.73588e-05
2.17849e-05
2.47847e-05
2.86994e-05
4.1266e-05
5.05895e-05
5.57107e-05
9.59718e-05
0.000179418
0.000230288
0.000290888
0.000339803
0.000421671
0.000464035
0.000615751
0.00061894
0.000738578
0.000891043
0.000915484
0.00094141
0.000969055
0.000984429
0.000979288
0.000956428
0.000924697
0.000885954
0.000843543
0.000792213
0.000658541
0.000740716
0.000748842
0.000714841
0.000850929
0.000917241
0.00100606
0.00109982
0.00119523
0.00127822
0.00135137
0.0014257
0.00146267
0.00154529
0.00157235
0.00157889
0.00156904
0.00154878
0.0015276
0.00150976
0.00146536
0.00141257
1.17862e-09
4.38087e-09
1.88972e-07
4.48352e-07
6.30066e-05
5.71354e-05
7.10086e-05
8.06841e-05
0.000179184
0.000933795
0.00044935
0.000886722
0.00122139
0.00164783
0.00110908
0.000650162
0.000828749
0.00118823
0.00145101
0.000927278
0.000805474
0.000258373
0.000134372
0.000119219
8.36426e-05
6.22568e-05
5.14735e-05
5.21487e-05
4.45068e-05
4.22998e-05
3.70781e-05
3.99508e-05
3.76878e-05
1.51207e-05
3.82745e-05
3.87852e-05
3.75527e-05
3.61373e-05
2.22428e-05
4.14915e-05
4.24292e-05
4.03567e-05
3.4387e-05
2.50346e-05
1.8443e-05
2.91047e-05
3.73634e-05
4.62589e-05
4.15674e-05
3.76983e-05
4.68144e-05
5.51091e-05
5.90502e-05
5.76282e-05
7.04408e-05
6.97305e-05
8.45794e-05
0.000189184
0.000226812
0.000299051
0.000348096
0.000399518
0.000510501
0.000536489
0.000616585
0.000856803
0.000906914
0.000962165
0.00097749
0.000997985
0.0010162
0.0010256
0.00101771
0.000993762
0.00096182
0.000922451
0.000882137
0.000836389
0.000773127
0.000785216
0.000790881
0.000819847
0.000885712
0.000907426
0.00104518
0.00102965
0.00113232
0.0012908
0.00135835
0.00143068
0.00149115
0.0015426
0.00156825
0.00157145
0.00156174
0.00153859
0.00151678
0.00149753
0.00145231
0.00140115
1.89296e-07
1.7765e-06
5.63878e-06
1.97656e-05
0.00127001
0.000674016
0.000292413
0.000671681
0.00107464
0.00103686
0.00112247
0.00107213
0.00127026
0.00173745
0.00143112
0.000872937
0.00119985
0.00149658
0.00175838
0.000764974
0.000577542
0.000284846
0.000137236
0.000122502
8.13999e-05
5.90628e-05
3.01348e-05
5.50936e-05
5.23847e-05
4.61981e-05
4.02682e-05
3.83314e-05
2.0019e-05
3.63257e-05
1.69453e-05
3.10572e-05
2.92378e-05
1.06193e-05
1.65012e-05
3.2493e-05
3.15696e-05
2.72873e-05
2.28429e-05
1.88275e-05
2.28823e-05
3.73702e-05
5.5088e-05
7.26504e-05
7.64761e-05
6.77384e-05
0.000116463
0.000101252
0.000116419
0.000127218
0.000153819
0.000183649
0.000191519
0.000243213
0.000292724
0.000371249
0.000444401
0.000488977
0.000545938
0.000609419
0.000844485
0.00093105
0.000980835
0.00102258
0.00094523
0.00104772
0.00107147
0.00107664
0.00106565
0.00103043
0.000997558
0.00095947
0.000919209
0.000879412
0.000747717
0.000829551
0.00083338
0.000860725
0.000920715
0.000983309
0.00107491
0.00114328
0.00122632
0.00130081
0.00136541
0.00143542
0.00145823
0.00153892
0.00156292
0.00156356
0.00155239
0.0015277
0.00150524
0.00148509
0.00143891
0.00138921
0.000780888
9.43624e-05
0.000112377
0.000825027
0.00157414
0.00117218
0.00124306
0.00143154
0.00139777
0.00151113
0.00151273
0.00150106
0.00154713
0.00158624
0.00132983
0.0011373
0.00150206
0.00176665
0.0017019
0.00110751
0.000434598
0.00026886
0.000205156
0.000119976
6.11162e-05
3.84832e-05
4.3936e-05
6.44601e-05
6.29162e-05
5.35133e-05
2.96895e-05
2.5853e-05
4.41446e-05
4.30218e-05
3.79807e-05
1.39788e-05
1.33463e-05
2.83858e-05
2.80488e-05
1.65715e-05
2.15377e-05
1.72713e-05
1.31968e-05
1.9208e-05
3.42587e-05
5.73615e-05
9.55478e-05
0.000125283
0.000165601
0.000173022
0.000200382
0.000183328
0.000191635
0.00020298
0.000230557
0.000243882
0.00026752
0.000358276
0.00038395
0.000473805
0.000574998
0.000643667
0.000643141
0.000840883
0.000938939
0.00100963
0.00105511
0.00108523
0.00110545
0.0011141
0.00112119
0.00112159
0.00110942
0.00108332
0.000953231
0.00100269
0.000962993
0.000894208
0.00088431
0.000824148
0.000883082
0.000906526
0.000962554
0.00102352
0.00110876
0.00108183
0.00124562
0.00131198
0.00137223
0.00140514
0.00149289
0.00153422
0.00155459
0.00155362
0.00154051
0.00151453
0.00149086
0.00146992
0.00142256
0.00137416
0.00330691
0.00074199
0.000586646
0.00099208
0.00172524
0.00159352
0.00195345
0.00178623
0.00186692
0.00184429
0.0015133
0.00154602
0.00156728
0.00168267
0.00157053
0.00157203
0.00171869
0.00142874
0.0010469
0.000940127
0.000555646
0.000373627
0.000243643
0.000137913
6.67013e-05
6.63371e-05
7.16975e-05
8.86505e-05
8.35213e-05
8.02341e-05
6.91147e-05
6.82035e-05
6.35806e-05
5.71605e-05
5.33377e-05
4.51325e-05
4.05121e-05
3.35639e-05
1.6483e-05
1.93693e-05
1.23795e-05
1.00985e-05
1.49254e-05
2.94689e-05
5.74704e-05
0.000102354
0.000222403
0.000322801
0.000338154
0.000301541
0.000255561
0.000270223
0.000290681
0.000304314
0.000314123
0.000336088
0.000372791
0.000463361
0.000498809
0.000627353
0.00069374
0.000760188
0.000891022
0.000953052
0.00102651
0.00108509
0.00113092
0.00115424
0.00116678
0.00116649
0.00116916
0.00116752
0.00115379
0.00112898
0.00109775
0.00105066
0.00101492
0.000985101
0.00094886
0.000940903
0.000937703
0.000958362
0.00100876
0.00107849
0.00114444
0.00120374
0.00126707
0.00132507
0.00137956
0.00144255
0.00149341
0.00152759
0.0015443
0.00154142
0.00152574
0.00149805
0.00147311
0.00145031
0.00140319
0.00135586
0.00383706
0.0020528
0.00146063
0.0013726
0.00168954
0.00200836
0.00218278
0.00195409
0.00195956
0.00178866
0.000916869
0.00150855
0.00164508
0.00153505
0.00155758
0.00146163
0.00166937
0.00144154
0.000634102
0.000543184
0.000437942
0.000366985
0.00027456
0.000154719
0.000121398
0.000118711
0.000131237
0.000138685
0.000160992
0.000124902
0.000105409
9.48684e-05
9.24155e-05
6.73482e-05
6.40255e-05
6.74183e-05
5.52801e-05
4.22018e-05
2.79941e-05
1.72348e-05
1.99277e-05
2.2674e-05
3.31298e-05
5.38438e-05
0.00010259
0.00024949
0.00037483
0.00038199
0.000380411
0.000376932
0.000366018
0.000390789
0.000369439
0.000423759
0.000424853
0.000496249
0.000522963
0.000606934
0.000620771
0.000682829
0.000741797
0.000935389
0.000995948
0.00104184
0.000974705
0.00115007
0.00118312
0.00120387
0.00110766
0.00110822
0.00121257
0.00120906
0.00119605
0.00117104
0.0011415
0.00110696
0.00106439
0.00103827
0.00100934
0.000998465
0.000994057
0.0010092
0.00095922
0.00112147
0.00117894
0.00123023
0.00128664
0.00133732
0.00138593
0.00140058
0.00148901
0.00152054
0.00153277
0.00152842
0.00150988
0.00148049
0.00145519
0.00142961
0.00138274
0.00133671
0.00391957
0.00335764
0.00256547
0.00198292
0.00205243
0.00234413
0.00233683
0.00225289
0.00203537
0.00165297
0.00107088
0.00102063
0.00133251
0.00143145
0.00130772
0.00148761
0.00130464
0.000777255
0.000817086
0.000599625
0.00043906
0.00034503
0.000292856
0.00021492
0.000179739
0.000166323
0.000177097
0.000213034
0.00025488
0.000229339
0.000240536
0.000221919
0.000182702
0.000136739
0.000135482
0.000109494
7.39097e-05
5.1429e-05
3.717e-05
3.02939e-05
3.29782e-05
4.35199e-05
6.93515e-05
0.000114786
0.000262726
0.000352379
0.000469687
0.000476984
0.000513227
0.000520532
0.000501331
0.000546357
0.000554936
0.000517027
0.000548253
0.000577697
0.000610979
0.000674054
0.000733385
0.000916285
0.000975532
0.000943169
0.00107347
0.000992142
0.00115856
0.00119493
0.00122164
0.00123986
0.00125064
0.00125062
0.00116867
0.00124347
0.00122987
0.00120828
0.00118212
0.00114743
0.00112087
0.00109683
0.00106327
0.000950992
0.00104626
0.0010573
0.00110961
0.00115868
0.00120995
0.00125491
0.00130038
0.00134781
0.00139266
0.00144282
0.00148257
0.00151245
0.00151823
0.0015134
0.00149218
0.00146184
0.00143541
0.00140811
0.00136127
0.00131671
0.00394863
0.00382419
0.00336178
0.00275112
0.00262222
0.00274716
0.00261944
0.00236272
0.00209369
0.00177259
0.00101514
0.000714731
0.000925436
0.000751184
0.00113172
0.00104821
0.00088443
0.000750127
0.000652531
0.00059433
0.000503399
0.000420838
0.00043188
0.000337947
0.000258558
0.000228762
0.000203048
0.000322859
0.000394026
0.000390437
0.000415951
0.000408743
0.000368809
0.000268973
0.000240282
0.000141526
8.45336e-05
6.21869e-05
5.36728e-05
4.78748e-05
5.95814e-05
9.10211e-05
0.000175823
0.000313773
0.000481373
0.000479917
0.000718628
0.000807412
0.000838809
0.000836292
0.000718128
0.000709663
0.000712064
0.000647716
0.00073997
0.000703826
0.000865255
0.00083718
0.000969069
0.00101185
0.00105397
0.001095
0.00113102
0.0011641
0.00119741
0.00122855
0.00125095
0.00126815
0.00127967
0.00128295
0.00128041
0.00127584
0.001262
0.00124007
0.00121602
0.00118575
0.00105675
0.00114218
0.00112301
0.00111115
0.00110609
0.00111523
0.00104192
0.00119534
0.00123554
0.0012771
0.00131339
0.00135353
0.00139809
0.00144219
0.00147499
0.00150017
0.00150284
0.00149429
0.00147305
0.00144214
0.00141351
0.0013862
0.00133914
0.00129584
0.00395124
0.00391041
0.00376765
0.00342388
0.00328212
0.00332847
0.00318674
0.00277117
0.00227107
0.00176054
0.00129015
0.000667924
0.000500417
0.000547207
0.000640617
0.000460684
0.000404288
0.000428685
0.000465083
0.000540418
0.000577554
0.0006391
0.000595144
0.000476389
0.000376957
0.000327898
0.000350478
0.000444846
0.000553519
0.000587213
0.000595734
0.000545386
0.000490288
0.000417236
0.000307352
0.000159355
9.83375e-05
0.000115525
7.66143e-05
9.08145e-05
0.000124442
0.000210544
0.000355817
0.000551495
0.000575982
0.000816129
0.000889093
0.000980223
0.000993934
0.000981805
0.000957422
0.0009494
0.000940202
0.000929471
0.000942586
0.000964922
0.000993385
0.00102146
0.00105063
0.00108198
0.00111011
0.0011389
0.00116534
0.00119431
0.00114656
0.0012497
0.00127553
0.00129265
0.00130295
0.00130594
0.00130394
0.00129825
0.00128596
0.00126929
0.00124593
0.0012187
0.00119865
0.00118084
0.00116453
0.00115703
0.00115126
0.00115712
0.00118933
0.00122482
0.00125901
0.00129043
0.00132558
0.00130322
0.00139786
0.00143783
0.00146683
0.00148573
0.00148635
0.00147429
0.00145044
0.0014212
0.00139049
0.00136304
0.00131638
0.00127447
0.00393091
0.00385448
0.00383472
0.0037212
0.00363875
0.00360456
0.00349055
0.00317337
0.00265516
0.0020629
0.0014159
0.000683941
0.00042659
0.000296409
0.000405738
0.000251686
0.000276535
0.00042199
0.000427832
0.000582969
0.000533358
0.00080563
0.000775565
0.00062162
0.000453121
0.000435163
0.000477253
0.000634763
0.000723729
0.000811363
0.000798823
0.000663965
0.000645254
0.000540054
0.000402745
0.000254259
0.00018227
0.000110988
0.000128583
0.000196691
0.000243751
0.000393469
0.000603964
0.000805538
0.000906359
0.00100747
0.00107605
0.00110799
0.00111254
0.00109841
0.000959776
0.00106922
0.00105783
0.000945502
0.000948566
0.00106
0.00107462
0.00109183
0.00101644
0.00112765
0.00114286
0.00116334
0.00118468
0.00121165
0.00124103
0.00126703
0.0012911
0.00130832
0.00132032
0.00132606
0.00127648
0.00132103
0.00130755
0.00128961
0.0012715
0.00124728
0.00122867
0.00121264
0.00119865
0.00119195
0.00107167
0.00107568
0.00122127
0.0012484
0.00127607
0.00130203
0.00133164
0.00136218
0.00139603
0.00143012
0.00145663
0.00146921
0.00146832
0.0014526
0.00142774
0.00139745
0.00136676
0.00133674
0.00129259
0.00125084
0.00389811
0.0037793
0.00371801
0.0036744
0.00363396
0.00354077
0.00339682
0.0032534
0.00294792
0.00244975
0.00188516
0.000944228
0.000709689
0.000500188
0.000453338
0.000383374
0.000431425
0.000589824
0.000652623
0.000823895
0.000980964
0.00108047
0.000912592
0.0008609
0.000721753
0.000777137
0.000607192
0.000870515
0.000890055
0.00101457
0.000971505
0.000826172
0.000754884
0.000658943
0.000507435
0.000369451
0.000290876
0.000183939
0.000241781
0.000351084
0.000523217
0.000806035
0.000841374
0.000948142
0.00106629
0.00106565
0.00117093
0.00118637
0.00118668
0.00117462
0.00105015
0.00114742
0.00113419
0.00112501
0.00112133
0.00112067
0.00112404
0.00112966
0.00113816
0.00108382
0.00115914
0.00117804
0.00119809
0.00122495
0.00125469
0.00128276
0.00130594
0.00132399
0.00133566
0.00133996
0.00133995
0.00133583
0.00132571
0.00130995
0.00129004
0.00127084
0.0012539
0.0012373
0.00122518
0.00122039
0.00121728
0.00110877
0.00124328
0.00126767
0.00128721
0.00131289
0.0013354
0.0013619
0.00139381
0.00142113
0.0014427
0.0014518
0.00144698
0.0014298
0.00140485
0.00137268
0.0013417
0.00131034
0.00126815
0.00122605
0.00385595
0.00369744
0.00360344
0.00354686
0.00340357
0.00315576
0.00296501
0.0029592
0.00291942
0.00267241
0.00227942
0.00181035
0.00125294
0.000922973
0.00071853
0.000678269
0.000567722
0.000768407
0.000978916
0.00106555
0.00135731
0.00140969
0.00129679
0.00116293
0.0010587
0.0010178
0.00107129
0.000877266
0.000974997
0.00100407
0.00106595
0.000963473
0.000969564
0.000740173
0.000558099
0.000443277
0.000385159
0.000375999
0.00053876
0.000579645
0.000868647
0.000950463
0.000995412
0.00103778
0.00115971
0.00120056
0.00119876
0.00123182
0.00119014
0.00121588
0.00112985
0.0011855
0.00117178
0.0011621
0.00108311
0.00114859
0.0011449
0.0011455
0.00115019
0.00115778
0.00116874
0.00118839
0.00120897
0.0011856
0.0012622
0.00129023
0.00131289
0.00133043
0.00134366
0.00135156
0.00135504
0.00134923
0.00133814
0.00132378
0.00130854
0.00128708
0.00127225
0.0012607
0.0012487
0.0012433
0.00124018
0.00124381
0.00117373
0.00127866
0.001298
0.00131675
0.00133965
0.00135938
0.00138745
0.00141155
0.00142735
0.00143426
0.00142483
0.00140626
0.00137932
0.00134735
0.00131552
0.00128366
0.00124215
0.00120075
0.00380412
0.0036259
0.0034843
0.0032501
0.0028881
0.00244604
0.00225542
0.0023983
0.00259879
0.0026375
0.00245768
0.00219149
0.00182942
0.00154535
0.00122134
0.00107052
0.00122278
0.00136537
0.00122539
0.00156895
0.0017373
0.001734
0.00162655
0.0016711
0.00137438
0.00116497
0.00101631
0.000986825
0.0012258
0.00117528
0.00122266
0.00118245
0.00109313
0.000928244
0.000664057
0.000599314
0.000475943
0.000570535
0.000712796
0.000861118
0.00101564
0.00104115
0.0011227
0.00116183
0.00120614
0.00122996
0.00124626
0.00125522
0.00124837
0.00120047
0.00121412
0.00119842
0.00118542
0.00117445
0.00116518
0.00115625
0.00115052
0.0011495
0.00115344
0.00116103
0.00117564
0.00119514
0.00121385
0.00123909
0.0012656
0.00129175
0.00131485
0.00133432
0.00134853
0.00135629
0.00136055
0.00135831
0.00135029
0.00133471
0.00131894
0.00130409
0.00128764
0.00127472
0.00126616
0.00126252
0.00126119
0.0012645
0.00127432
0.00128979
0.00130457
0.00132048
0.00133929
0.00135728
0.00137707
0.00139834
0.00140986
0.00141341
0.00140092
0.00138203
0.00135263
0.00132065
0.0012888
0.00125644
0.00121531
0.00117499
0.00373992
0.00352839
0.00311835
0.0026103
0.00211587
0.00167031
0.00153601
0.00175822
0.00215705
0.00241403
0.00244072
0.00233514
0.00216053
0.00193199
0.00178806
0.00182805
0.00184928
0.00192065
0.00184623
0.00189078
0.0019253
0.00189235
0.00178764
0.00160542
0.00140382
0.00120135
0.00113263
0.00116965
0.00138768
0.00131307
0.00177362
0.0012757
0.00122038
0.00109967
0.000883536
0.000833209
0.000681567
0.000786852
0.000920543
0.00106605
0.00115177
0.0011767
0.00118048
0.0012004
0.00122041
0.00123291
0.00124649
0.00125694
0.00125041