/*--------------------------------*- C++ -*----------------------------------*\
  =========                 |
  \\      /  F ield         | OpenFOAM: The Open Source CFD Toolbox
   \\    /   O peration     | Website:  https://openfoam.org
    \\  /    A nd           | Version:  6
     \\/     M anipulation  |
\*---------------------------------------------------------------------------*/
FoamFile
{
    version     2.0;
    format      ascii;
    class       volScalarField;
    location    "0.1";
    object      omegaYc;
}
// * * * * * * * * * * * * * * * * * * * * * * * * * * * * * * * * * * * * * //

dimensions      [1 -3 -1 0 0 0 0];

internalField   nonuniform List<scalar> 
8000
(
0.00348332
2.35945
19.1578
49.4081
50.2693
50.3722
32.9285
13.7309
3.69383
0.464079
0.0372953
0.0112203
0.0395338
2.03545
1.36742
1.0532
15.5888
29.2833
41.0201
16.621
19.0541
32.9282
56.9834
65.2552
35.5351
25.8708
24.6269
23.7497
24.6557
70.1682
27.9092
35.0056
44.9324
43.5282
39.7327
36.2202
34.0347
34.7085
40.9813
44.3578
36.965
30.4545
28.4637
28.8514
28.2299
22.8531
15.8242
11.8384
11.2659
75.8325
2.97268
7.00331
6.76923
6.44609
5.77812
4.94209
4.16709
3.57159
3.15705
2.94351
2.8007
3.28661
3.11984
4.57879
3.89285
1.79043
4.88268
3.8669
4.55953
5.0058
14.1144
6.28482
6.19018
15.0885
14.8565
5.81001
5.83022
5.51235
4.97604
4.75134
5.26649
5.36406
6.03908
15.483
17.3451
19.2484
20.2256
21.1696
46.2179
21.2389
20.671
20.359
20.3921
20.0787
18.6625
17.9384
17.3014
16.8005
16.4084
14.8111
0.00281343
2.69682
21.2877
50.0071
50.8201
50.1391
31.1279
13.0598
3.30339
0.356451
0.0279709
0.0139605
0.0962959
12.7817
9.07276
2.45533
5.21264
19.5137
22.8539
24.6331
24.8527
36.9738
58.7843
64.1152
34.3501
25.8766
24.0377
23.6191
24.2636
29.2015
25.4503
35.662
43.7602
43.0351
40.796
38.4018
36.4863
36.7278
43.2645
72.6413
40.8463
31.5511
28.8883
28.8804
27.7848
22.2419
15.3514
11.5997
11.6077
8.25179
7.97696
7.26781
6.70894
6.26524
5.62601
4.82902
4.08955
3.52666
3.14242
2.95857
2.85718
3.34287
3.12437
4.76143
2.46173
1.82809
4.95568
3.91056
4.5964
5.06714
5.37097
6.34054
6.20459
15.1635
14.9175
5.82402
5.86479
5.53731
5.01017
4.74491
5.28927
5.37073
6.06463
15.5272
17.3409
19.2651
20.2344
21.1747
21.9459
21.226
20.6667
20.35
20.3824
20.0743
18.6472
17.9285
17.2895
16.7894
16.406
14.7987
0.00408234
4.58
14.9246
41.3146
46.1851
39.176
21.9495
10.8345
8.4625
0.314812
0.437319
0.0158304
0.198466
38.0461
38.3727
7.69264
2.70042
5.15213
46.2961
112.959
47.6015
47.0442
62.3564
61.3069
32.0401
26.789
24.0799
23.3086
23.183
23.9377
27.1095
35.5768
42.2197
42.4651
42.8557
42.7866
41.2747
40.2166
40.4788
40.3047
34.8131
30.6186
29.1114
28.5967
26.7744
20.9711
14.3178
11.4479
11.5866
9.23866
7.22942
6.9822
6.10855
5.81105
5.31054
4.60105
3.92885
3.43732
3.12074
2.93408
2.97824
3.45599
3.1246
4.40106
2.6302
1.90959
3.62774
4.01131
4.67256
5.19406
5.58392
6.44426
29.6705
15.3318
15.0494
22.6049
5.94114
5.59171
5.08338
12.3502
5.34055
5.3847
6.12295
15.6172
38.8266
19.3023
20.2509
21.1862
21.8163
21.2037
20.6573
20.3306
56.3674
57.3128
18.6135
17.9067
17.2636
16.7651
58.2581
14.7714
0.0100452
8.49913
35.4026
46.9848
37.8945
26.3045
13.4012
4.97878
0.810176
0.0483155
0.00427808
0.00500684
0.064558
25.5126
19.631
14.132
1.75543
2.48029
23.7765
39.4089
35.0333
47.3733
63.4804
52.3189
29.5984
7.29805
25.8305
22.9678
22.3398
23.6072
27.451
34.6474
40.3191
41.2359
43.9781
73.2653
46.1226
69.1578
41.0209
37.7169
33.8155
30.8323
29.1137
27.6849
23.4397
17.2413
13.353
11.0017
11.0417
8.91224
7.03418
6.29556
1.13936
5.24123
4.92422
4.30933
3.71464
3.32704
3.1278
2.86857
3.14785
3.12585
3.1022
3.91425
2.87593
2.03792
3.81382
4.17777
4.77501
5.36565
20.965
14.9925
14.945
15.5986
15.2459
6.15116
6.05833
5.67315
5.19176
5.02404
5.42192
5.40394
6.21676
15.736
17.6117
19.3603
20.2748
21.204
21.7264
21.1747
20.6432
20.3012
20.2244
19.8699
18.5618
17.8737
17.2244
16.7284
16.1689
14.7291
0.00699173
16.9329
11.2297
58.3772
33.4007
17.8378
6.93133
1.47258
0.126296
0.00577623
0.0193731
0.00320607
0.00394421
9.96969
22.4996
3.54047
0.943857
1.73133
10.4354
20.163
31.19
50.9906
63.5186
46.1096
28.6892
25.4768
23.7559
22.0476
21.0844
22.9626
26.5579
32.949
37.9547
38.8053
39.81
40.5757
40.3987
39.7889
38.7912
71.022
33.4844
30.1974
27.9507
24.2158
21.3279
14.9431
11.242
10.0367
10.18
8.27668
6.62287
6.17408
5.72914
4.95291
4.56862
4.00516
3.4834
3.22605
3.15691
3.07503
3.35055
3.18308
3.09421
3.25451
2.51721
4.77689
4.06983
4.4282
12.8621
5.57559
6.01062
15.3918
15.5774
15.9404
15.4997
6.39935
6.20677
5.77976
5.32536
5.24271
5.52606
18.4277
6.35025
34.7884
17.7949
19.4354
20.3058
21.2287
21.6273
21.1398
20.6245
20.2627
20.105
19.7246
18.4959
17.8283
17.1723
16.6798
15.9967
14.675
0.00268525
12.2212
57.1898
45.6422
20.9064
9.94799
2.51733
4.23055
0.0171783
0.00111269
0.000513326
0.00134474
0.00799891
2.06694
3.40916
0.314694
0.579968
0.645187
3.29186
17.4409
35.9839
59.1775
81.5004
34.0233
27.0052
24.6616
22.8382
21.8045
20.9682
21.706
24.9358
30.6928
32.3229
36.0622
36.4895
36.674
36.6281
36.3259
35.3893
30.4286
28.4071
25.1254
52.3371
22.0171
17.0566
13.0485
10.6972
9.42264
9.32172
2.95939
6.17587
5.87339
1.34553
4.52362
4.20379
3.72325
3.30864
3.26871
3.11362
3.35076
3.55014
3.23922
3.05587
3.56506
2.8155
5.16558
4.39269
4.76454
5.23741
5.82145
6.28405
15.8763
16.1709
16.3093
15.8037
6.62939
6.37343
5.91044
5.48268
5.42012
5.65037
19.9824
14.8652
16.2785
17.955
19.5259
20.3428
21.2507
21.5426
21.1
20.6013
20.2154
19.999
57.2368
18.4176
17.7537
17.1077
16.6193
15.8541
14.6106
0.000601772
6.74255
40.8877
14.3293
9.52296
3.87256
5.55102
1.8833
0.082687
0.00116978
0.00102204
0.0047314
0.026294
0.495081
0.782092
0.673539
1.46539
3.54987
9.02499
22.1719
64.0916
65.5297
51.2273
33.0307
25.4728
10.596
11.4044
21.2164
15.7809
21.0008
22.5459
25.4678
29.5865
30.4897
30.8068
30.967
33.8108
30.6163
29.4757
26.9488
48.4889
23.6435
22.2829
18.278
14.9601
10.8
9.16729
9.58075
8.62198
7.13369
5.95359
5.05473
1.53652
4.14669
3.90785
3.58068
3.3198
2.7501
3.37628
3.66956
3.76629
3.30213
5.60347
4.5208
4.67369
4.02167
4.77013
5.17515
5.56518
6.08662
6.53147
16.3935
16.6965
16.7103
16.1504
15.4753
6.55793
6.06665
5.65895
19.095
5.7927
5.8689
15.2994
16.6503
18.1029
19.6309
20.3858
43.473
21.4115
20.9889
20.5734
20.1598
19.893
19.4567
18.3275
17.6655
17.0308
16.5466
15.7285
14.5367
0.00202531
2.39286
11.3874
8.11863
2.60474
0.590892
2.00595
0.0280211
0.00259631
0.00168532
0.00337382
0.0249549
0.260797
0.516808
0.566653
0.890021
2.54377
6.64149
14.2968
29.0018
53.6861
93.9259
43.8544
27.0496
25.4313
22.9533
22.024
20.5741
19.8204
19.5667
25.3703
22.2779
23.9128
25.0139
25.22
51.3046
28.1852
27.8212
24.2189
22.6556
21.6206
22.5008
20.7853
16.3892
13.2578
10.0587
9.16116
8.04
7.96671
6.63779
5.62432
4.61093
2.06614
3.79739
3.64539
3.4544
3.32835
3.28826
3.7118
3.55083
3.34561
6.9619
6.40529
3.45628
2.43378
4.44452
5.19281
5.63708
5.89051
28.2236
33.9045
16.937
17.2386
17.1208
36.416
15.9875
15.2265
6.25177
5.84634
20.8779
5.95285
6.11766
15.7808
17.0105
43.4
19.7493
20.4336
21.1665
21.2502
20.868
20.4972
20.0973
19.7844
19.2459
18.2275
17.5643
16.9421
16.4634
15.6136
14.4539
4.08587e-05
0.358011
5.65744
5.09564
0.31089
0.0392593
0.0150482
0.00327055
0.00224488
0.00637921
0.00618855
0.117818
4.79853
3.39609
2.00561
1.58145
3.86774
13.999
20.6831
39.5084
57.4544
62.5149
44.6519
28.81
11.5026
8.09727
21.2473
20.7443
12.0301
19.1216
19.325
20.4279
20.5377
21.4571
22.559
21.9202
42.0311
22.2439
20.4613
40.4415
19.7953
18.9464
17.0097
14.45
11.738
9.30692
8.51337
7.40267
7.21122
6.04539
5.2463
4.47621
3.85931
3.47602
3.09967
3.32456
3.27546
3.60514
4.15894
3.81953
6.78682
10.4465
4.31798
4.93055
5.65522
4.93305
5.65911
6.12042
23.887
6.82665
16.343
17.5439
17.7738
17.5398
17.0015
16.4931
15.6878
6.46553
23.6194
6.06424
26.3153
29.8413
16.2487
17.3763
43.8745
19.8839
20.4843
21.0858
21.0891
20.7574
20.394
20.0285
19.6214
19.0589
18.1189
17.451
16.8399
16.3757
15.5065
14.3626
2.94358e-06
0.0274666
0.316428
1.47857
0.0180246
0.00268793
0.0195231
0.00204018
0.00305457
0.0108319
0.138409
0.410172
18.9537
23.5415
8.93719
7.17952
11.246
25.2453
44.3889
73.0397
93.7364
58.5441
42.19
27.8718
22.8879
9.36483
20.8715
20.3206
19.3324
18.9688
19.3623
19.2371
19.4502
15.8968
23.5022
20.0088
19.7688
18.9317
18.4967
18.191
17.5371
16.6869
14.8357
12.4534
10.4494
8.74557
7.76434
6.68248
6.4081
5.46275
4.85689
4.3561
3.9849
3.64397
3.59326
3.58289
4.59834
6.12207
3.92009
4.01221
3.67288
5.10416
3.69951
2.64664
8.92694
14.1331
6.14148
6.6387
30.9265
16.2342
17.2562
18.1674
18.2091
17.9683
17.4849
16.984
36.5712
32.8214
6.32124
6.35999
6.43863
15.0902
16.6676
17.7474
18.8038
19.6892
20.537
21.0141
20.9277
20.6382
20.2789
19.9669
19.4619
18.8789
18.0036
17.3262
16.7228
16.278
15.4049
14.2631
1.82786e-07
0.0116367
0.220256
0.16187
0.00195918
0.00115396
0.00238084
0.00277141
0.00539863
0.0351074
0.217512
1.66598
63.6372
68.7786
25.2278
14.8554
11.782
32.8079
54.2229
63.7815
62.6406
54.0136
37.9426
26.4105
21.9372
21.7964
20.1041
19.6493
19.2875
18.4348
18.4606
18.6688
18.4091
18.4169
18.9551
15.2338
18.434
18.0395
17.1189
23.616
15.0251
14.7205
13.0768
10.6289
9.35059
8.08751
6.98208
6.05554
5.94139
4.98156
4.58751
4.25161
3.97613
3.886
5.3129
3.94772
6.17145
3.86
4.12239
4.07561
7.17822
7.44639
3.664
6.05224
5.23618
6.14772
6.64549
7.14819
16.1547
38.6263
18.1183
18.6282
18.6125
18.342
17.958
17.4279
16.7164
15.6664
6.59151
32.415
15.1686
15.801
17.0999
18.0726
19.1324
19.8465
20.5938
20.9406
20.7937
49.4791
20.1567
19.8912
19.3156
18.7012
17.886
17.1958
16.5951
16.1715
15.2612
14.1586
0.000313099
0.00199541
0.0207695
0.0231235
0.00530982
0.00415684
0.024988
0.0331194
0.084259
0.177474
0.594104
5.82159
45.8213
97.8321
42.0793
21.1185
21.6081
36.7797
67.3718
105.273
59.9014
44.2476
31.8504
24.3128
21.2214
9.95481
7.89604
18.7674
18.8577
9.08616
18.3766
18.0357
17.3778
17.1434
17.0118
18.7051
17.3172
17.5234
15.6259
14.7065
13.5746
12.4842
11.0848
9.6617
8.62312
7.45172
6.27716
5.65852
5.25272
4.70535
6.98782
7.00004
6.91735
3.84431
3.81399
3.85046
3.87745
4.09577
4.18304
7.48445
5.09685
5.33548
2.96891
4.93398
5.89927
6.77594
33.8663
38.1518
17.3469
18.0854
18.8065
19.0843
19.019
18.7236
18.3404
17.8786
17.2467
16.3464
15.3126
15.5552
15.8184
16.4441
17.5408
18.4077
19.3734
20.0095
20.6515
20.867
20.6617
20.2723
20.0426
54.4125
19.1872
18.5193
17.7713
17.062
16.4563
16.0579
15.0927
14.0488
0.000343429
4.74971e-05
0.000662993
0.0117223
0.0788712
0.0517621
0.357397
0.349431
1.83875
3.97553
6.07935
14.0578
51.0502
86.7551
46.5227
25.3266
27.2512
42.3505
65.3679
65.5671
55.7452
38.1611
23.6637
22.2254
20.299
11.8174
19.2278
18.4588
6.77695
18.4401
7.4013
19.0871
19.8293
19.3062
17.751
17.212
17.8041
17.1884
14.9056
13.427
11.9193
13.3887
10.282
8.7057
8.9858
6.61229
5.71742
10.1502
4.85796
4.7158
9.09567
4.36022
4.22558
4.0957
8.62944
8.49825
4.08472
9.05803
7.75607
6.02184
4.4223
6.87415
10.0305
5.60096
22.0578
7.37468
37.7977
17.6215
18.3442
18.8927
19.3512
19.5059
19.3938
19.1078
18.7195
18.2682
17.7145
16.9609
35.8993
16.2496
16.4651
37.6342
17.9637
18.7481
19.602
20.1344
20.7032
20.798
20.5241
20.0971
51.9506
19.5777
19.0556
18.3366
17.6515
16.9193
16.3096
15.8861
14.9224
13.9297
5.37221e-05
0.00187972
0.00954393
0.0859711
4.3259
3.25145
4.00346
5.47047
10.8146
42.0627
25.0713
42.5497
60.3229
92.8377
58.7534
32.257
38.3616
67.3239
99.9421
102.956
45.9701
31.1354
23.4384
21.6157
19.5471
18.045
17.258
17.3837
16.8247
17.1192
16.386
18.306
18.6521
6.69602
17.4312
16.855
16.2071
15.5466
8.37728
12.4246
11.7905
10.3069
9.09437
7.93316
8.02059
6.09266
5.69231
5.484
4.79673
4.65209
4.79905
4.90991
4.77783
9.34433
10.2292
4.21371
4.18305
16.2364
6.18252
4.74252
3.09342
3.44787
12.2167
6.30254
7.2201
16.2437
17.3916
18.4723
19.0146
19.5008
19.7747
19.8217
19.6802
19.4214
19.0937
18.6376
18.1651
17.5393
16.6236
16.8754
17.0365
17.5309
18.3312
43.9208
19.4657
40.5955
42.9843
20.7238
20.4022
19.9248
19.6973
19.3825
18.9224
18.1675
17.5248
16.7681
16.1632
15.714
14.7501
13.7996
0.034598
0.0952473
0.315541
2.35735
123.178
30.1319
16.5367
33.6592
51.899
54.3981
55.7309
53.3594
63.6132
87.3735
71.6323
42.8662
53.3873
86.1806
69.1842
90.9088
39.8195
28.3863
23.5643
19.971
18.5368
16.4399
10.9896
16.1169
15.4185
15.8349
15.8633
15.3207
8.09736
16.053
7.22441
15.3307
14.716
5.32771
7.10317
11.5161
10.8125
9.63405
8.32881
6.99715
6.04631
5.63006
5.54003
5.67601
5.79771
11.1339
7.40167
5.88572
6.29476
6.66191
7.29959
16.9301
7.75604
7.21429
4.87823
7.48238
6.85025
5.52073
6.20916
6.9946
15.5736
17.2023
18.2447
19.0968
44.7512
19.9315
19.7645
19.7718
19.5995
19.689
19.4017
19.0058
18.533
18.0675
38.9451
17.4719
17.6106
18.0503
18.6984
19.3929
19.6823
20.2888
20.5811
20.5123
20.296
19.7731
52.1964
19.1973
18.7477
17.9949
17.34
16.6019
16.0097
15.5419
14.5759
13.663
48.5664
6.66832
6.94471
50.0889
101.746
65.0334
50.6417
83.0575
76.7919
66.9995
68.7863
79.0771
75.2523
80.0605
65.8366
58.3549
62.8604
66.1965
65.1098
54.4512
40.9573
30.261
22.1746
22.4175
16.1886
13.0084
13.7734
14.2875
13.7525
13.8564
10.4589
9.54246
13.4183
12.9464
12.8873
6.3419
6.15967
13.5082
12.4752
7.62428
9.59534
8.26404
6.90627
6.1094
11.3585
5.46175
17.1034
6.52445
7.8741
18.0173
9.18151
8.12517
7.63556
7.81476
7.84236
7.46106
5.74215
9.57268
7.7736
7.17152
14.237
18.9499
7.14928
15.0548
16.9213
18.0928
18.9533
19.5989
19.6942
20.0174
20.1094
20.0243
19.8643
19.6353
39.5409
19.3918
18.9714
44.5687
18.129
41.6299
18.2393
18.542
19.1319
19.6983
19.8714
41.8276
20.4721
20.2276
20.0752
49.8645
19.2771
18.9885
18.5054
17.7852
17.1122
16.388
15.8186
15.3419
14.3658
13.4908
32.4982
50.8597
40.3142
55.7974
77.7263
63.1258
65.4227
69.0957
70.5523
71.1096
94.2097
91.7221
90.4578
82.7651
82.8694
68.5321
67.2396
95.1462
100.979
47.2937
33.7962
27.4134
21.0321
17.2209
16.8225
16.6004
17.1242
13.4373
18.2465
12.1545
11.3849
11.4871
11.1543
11.0458
11.2867
11.055
10.7601
10.4152
7.69417
9.34914
6.96149
6.00488
7.23472
5.75739
5.43675
5.9012
9.86443
11.8517
10.9608
8.47646
4.45489
8.41782
8.60348
8.84753
4.13478
4.01774
8.03774
10.9215
5.59064
17.4859
22.82
33.1638
15.2392
16.7116
18.0108
18.7477
19.0372
19.5425
20.0144
20.2578
20.2561
20.1536
19.9735
19.8199
19.6748
19.7344
19.4456
19.1336
18.8077
18.77
18.8172
19.0836
19.5505
19.6745
19.9737
20.3944
20.3495
19.945
19.7003
19.2276
19.0416
18.6725
18.2254
17.5363
16.8506
16.128
15.5849
15.0749
14.1269
13.2811
52.8749
30.7471
90.2565
82.0206
73.5048
57.6035
48.4556
50.259
57.2129
62.0889
94.5676
71.5449
77.9976
89.5417
87.9192
89.2048
66.1271
58.5221
76.1098
33.2383
50.001
24.5161
20.9967
15.5048
22.4621
13.1418
12.7832
12.4773
25.2745
10.8178
20.3173
19.5074
9.63888
9.10872
16.1369
9.10782
9.17496
9.23289
8.77156
8.39436
7.29805
6.33199
5.80986
14.4859
5.90725
10.3611
12.4158
8.71451
6.12705
5.15373
4.92563
9.14668
4.74664
9.89274
5.0995
11.3413
12.0104
16.4545
6.80423
7.37729
7.91078
15.3603
16.5837
17.7656
39.6389
18.6388
19.0798
19.6005
42.5897
42.7742
20.3138
20.1787
20.0533
19.9054
19.7927
19.6944
19.7818
19.5686
19.3954
19.3559
19.38
19.5786
39.9485
19.9105
20.0545
20.1892
20.1924
19.6844
19.3198
50.2182
18.6571
18.4186
17.9286
17.3108
16.5874
15.87
15.3328
14.7948
13.8796
13.0646
59.0233
47.7883
74.2364
83.6056
59.1875
38.9281
33.981
35.666
35.5118
42.2912
46.4643
54.6773
67.7116
74.2359
89.7581
67.123
58.1069
92.5855
41.9352
31.7673
25.3804
43.8494
39.5458
29.6411
26.6974
12.3143
11.7669
12.1073
11.9758
10.9805
30.4266
10.1161
9.44095
23.168
8.89877
8.77725
17.3531
7.93975
7.35608
6.95869
6.47689
12.9912
5.71955
6.13494
28.0569
20.524
19.9283
6.37779
6.61257
6.57909
6.27546
16.6455
16.3795
6.08809
6.31251
6.49157
6.73493
7.32739
7.86036
14.7605
15.5403
41.9712
17.2692
39.1102
18.4085
18.48
18.7255
19.2073
19.7131
20.0438
43.5799
19.9661
19.8109
19.8422
19.8575
19.8038
19.7263
19.5257
19.7845
42.1643
19.801
19.945
19.8608
20.007
20.0391
19.9897
19.8089
19.3936
19.0114
18.552
18.2857
18.175
17.6023
17.034
16.2988
15.6003
15.0561
14.509
13.6196
12.8458
60.4944
56.8377
83.6913
87.9606
80.6506
86.987
77.5635
50.7364
33.6024
36.7855
29.6872
75.8543
52.4342
83.8788
61.9707
55.8249
47.8555
38.0258
32.7753
28.5759
23.5753
63.0704
18.5991
15.9188
12.5393
11.4815
10.3088
37.6578
13.5937
39.0431
13.2588
13.1668
35.8596
9.76281
30.1067
8.33782
7.45335
7.15141
7.12634
6.33952
5.854
5.92549
8.05906
31.1974
13.788
7.65035
14.9633
16.0376
16.4375
16.265
34.9561
33.4787
32.265
7.34738
33.6867
7.68463
14.3725
38.2297
15.4844
15.8454
16.2316
16.4748
17.0733
17.8373
17.9885
18.0109
18.1279
18.6172
19.1617
19.5875
19.7571
19.7995
19.5853
19.5914
19.7117
19.8727
41.0228
19.7378
19.7352
19.7683
19.7839
19.925
41.0415
20.0437
19.8409
19.7999
19.4885
18.954
18.7326
18.2712
17.9382
17.8129
17.281
16.6555
15.9876
15.3184
14.7399
14.2089
13.3512
12.6195
60.8025
58.7082
74.2986
97.6347
109.514
116.045
120
102.858
57.3626
32.0971
37.3282
23.5763
30.1767
38.5208
42.0084
35.1918
30.69
50.1883
25.6073
24.0551
21.8246
20.5981
18.5572
15.7412
13.5034
41.3128
12.4143
13.5885
14.8091
15.1144
15.4418
15.3405
14.696
13.6824
12.163
8.04223
7.11489
22.5257
6.55983
6.46761
6.97707
8.50828
33.035
15.0547
9.12468
16.0644
42.4221
17.8648
18.0912
17.98
17.6847
17.2202
16.7087
16.2423
15.9611
15.8137
15.9651
16.0973
16.2482
16.0362
16.0646
16.3148
16.6431
17.1744
41.5683
17.1727
17.5149
18.0369
18.5262
18.9068
19.1164
19.1303
19.0689
19.3351
19.4604
19.7282
19.8178
19.7748
19.8253
19.9241
20.0097
20.1049
20.061
19.8766
19.6459
19.2938
19.1545
47.004
18.3014
17.9229
17.6492
17.4076
16.9502
16.3055
15.6438
15.0257
14.4144
13.9042
13.0766
12.3869
60.5695
58.4575
61.2686
77.9213
87.1844
84.3031
94.9011
115.762
96.5631
47.8177
27.2797
17.1198
18.496
52.123
29.5654
31.9072
33.3401
23.675
53.8665
20.6975
75.6961
20.9019
19.2214
15.7781
67.6215
65.4605
13.6503
57.4333
17.4298
18.7499
19.2141
19.5725
45.8839
17.5529
14.9557
12.3205
25.3391
6.83666
6.94613
25.0831
9.25418
33.4809
15.5883
17.3037
16.6249
17.8624
17.9609
18.1419
18.3653
18.4056
41.2125
18.1913
17.7047
42.0171
41.3296
16.5794
16.1333
16.0933
37.679
15.9663
15.6048
15.6271
15.7833
16.1828
16.3969
16.3849
16.7172
17.2528
17.8144
18.3338
45.583
18.6754
18.5833
18.7609
19.1281
19.4356
19.5536
19.7007
19.8239
19.9113
41.9559
42.1934
19.9564
19.611
19.3336
18.8852
18.654
18.2553
17.887
17.5303
17.3419
17.0189
16.5996
15.9362
15.3077
14.6782
14.0894
13.5514
12.7904
12.113
60.0356
56.7593
54.0852
56.9035
57.0059
52.3331
61.0086
89.3429
108.032
75.0413
36.0108
6.3334
17.6399
19.4504
22.3571
21.2068
20.058
21.0308
19.5102
20.9631
21.461
21.4774
77.2984
17.9025
16.1919
63.9271
16.3166
49.8087
21.3649
22.3798
19.6274
17.8157
17.9462
18.3032
18.1402
16.4159
14.846
8.44692
9.28864
11.3753
14.7927
19.8746
17.1957
16.606
17.1363
38.9549
17.681
17.6177
17.9533
18.2708
40.1245
17.662
17.2642
17.128
16.6957
16.19
15.9143
15.6125
15.4589
38.4074
14.7074
14.7414
14.8931
15.2888
15.5906
15.8192
16.1568
16.7397
17.2828
17.6426
17.9202
18.0044
18.0933
18.3519
18.5791
19.055
19.27
19.3944
19.5836
19.7436
19.9616
42.7964
19.6607
19.3419
18.8752
18.5663
18.1944
17.8051
17.5886
17.1649
16.9511
16.6528
16.1744
15.5639
14.978
14.3239
13.7576
13.2024
12.4984
11.8274
59.2115
54.0626
49.0314
45.0988
39.6507
33.6922
38.9218
62.5503
92.4361
90.9652
52.2187
30.1342
20.457
20.1155
18.8835
19.2798
70.8141
77.2646
20.9535
82.3632
23.0561
23.2863
22.1223
21.3587
20.9932
23.4384
36.1285
17.7313
28.8014
14.7917
14.2989
15.3578
29.0414
14.9936
15.2097
16.1878
16.6004
31.6912
18.0887
38.0221
19.9708
18.3277
16.4237
37.1685
16.4847
16.4188
40.9986
16.2403
41.5065
17.1304
40.4792
16.5094
16.2582
16.1934
38.8716
15.3449
14.919
14.5525
14.3087
14.0796
13.7968
13.9338
14.1763
41.9931
14.8399
15.2
15.5597
16.0768
16.6429
17.0922
17.482
17.5115
17.5259
17.7817
18.1969
18.4825
18.7728
19.1264
19.2861
19.413
19.6008
19.7311
43.4561
18.7753
18.5022
18.0095
17.8558
17.3689
17.2153
16.8836
16.5576
16.3275
15.7818
15.2083
14.5998
13.9744
13.4123
12.8686
12.1782
11.5379
57.9828
50.0481
41.8792
34.5975
26.2152
20.2325
25.4811
44.7753
73.0233
87.9897
66.7841
38.2645
27.793
25.7923
22.2946
70.9567
21.8548
22.7236
79.0696
24.0538
25.0844
23.186
22.9732
35.9683
20.4306
13.2906
10.8299
14.7419
32.4795
14.1476
11.9662
12.4503
13.9437
14.8068
14.6877
26.7351
14.4307
16.3598
17.5277
41.4789
18.1904
35.986
15.6878
38.708
40.0135
14.3031
14.3837
14.6498
15.0138
41.5788
15.1018
14.7746
14.7176
14.7122
14.4596
14.0307
13.6677
13.3962
13.2111
13.1085
13.0738
13.2494
13.5185
13.9618
14.2411
14.5848
14.9976
15.5758
16.1291
16.5139
16.8314
16.9852
17.1408
17.283
17.5793
18.0888
18.2606
18.5168
18.817
19.0375
19.2792
19.3783
18.7751
18.3475
18.0417
17.5971
17.3992
17.0759
16.7923
16.5117
16.1962
15.9101
15.3679
14.8489
14.2087
13.6175
13.0662
12.5354
11.8557
11.2447
55.8942
44.4873
31.3726
22.0625
15.1084
12.0062
17.2939
32.8639
57.7222
77.2889
71.2885
46.7427
31.5424
26.5343
26.8438
33.1853
31.1409
29.3644
23.057
18.8921
18.7887
17.7909
15.538
12.2391
7.90231
5.49131
5.95274
14.3133
34.7252
11.8783
33.897
6.87577
9.31561
13.1549
15.026
27.4158
15.1741
35.8491
17.066
17.1263
16.6778
15.363
13.6252
13.0332
12.668
12.3721
12.6018
42.3656
13.4148
13.7897
13.4087
13.2545
13.2518
13.3068
13.1081
12.8226
12.5945
12.4247
39.0003
12.3189
12.4504
40.8414
12.8436
13.2438
13.6029
13.9847
14.4209
14.9447
15.5329
16.0294
16.383
16.4517
16.5726
16.8704
17.1286
17.434
17.8096
18.089
18.2638
18.4288
18.6022
18.6555
18.2916
17.8446
17.4998
17.254
16.9502
16.7248
16.41
16.1017
15.8629
15.496
14.9893
14.4585
13.8288
13.2499
12.727
12.1757
11.5347
10.943
51.9647
34.36
18.7732
11.8089
8.0541
7.58564
11.4809
23.7672
45.3433
65.8407
68.2247
51.581
35.1897
28.6542
25.9643
24.5233
23.952
23.7598
23.5352
24.0883
23.7883
22.1384
19.3497
16.0937
12.7651
9.07058
33.813
7.65537
37.491
36.396
5.14529
5.28762
5.02267
9.84053
14.0928
15.1852
16.092
35.8033
16.3553
15.9587
14.6748
12.4384
11.3097
10.8037
40.2475
10.5165
10.8508
11.5556
11.8862
12.2053
11.9537
11.9287
11.9913
12.0686
11.9561
11.7901
11.6728
11.5941
11.547
11.5703
11.7897
12.0953
12.2562
12.5821
12.9383
13.3423
13.8374
14.4046
14.9639
15.3924
15.8847
16.0128
16.1541
16.3485
16.7052
17.0198
17.244
17.5123
17.7913
18.0094
18.1202
18.1484
17.7369
17.3107
17.1695
16.7658
16.6424
16.2645
16.0441
15.7226
15.4767
15.0704
14.6125
14.0358
13.4423
12.8894
12.3817
11.8159
11.2133
10.6378
45.896
20.2045
9.08037
5.94516
4.79539
4.72221
7.06758
16.012
34.4551
54.8836
61.8912
52.2516
38.0634
30.0923
27.036
25.9024
25.4955
25.3661
25.405
25.4415
25.1102
23.7034
21.5572
18.3836
14.9557
11.4971
7.48676
38.2095
8.22947
8.94754
8.72097
9.83502
5.41421
6.20758
11.3284
13.9555
15.3474
15.0943
14.6114
12.8634
10.2359
9.30954
8.82449
8.4522
8.35828
8.43458
8.94429
9.80506
10.3
10.7438
10.5607
10.6388
10.7779
10.9216
10.8971
10.8038
10.7718
10.7858
10.7785
10.8602
11.1158
11.3831
11.5639
11.9013
12.2783
12.713
13.1926
13.7751
14.3684
14.8748
46.8966
15.4658
15.6968
15.9975
16.2171
16.5553
16.9059
17.0149
17.182
17.3084
17.4426
17.3832
17.1382
16.9651
16.6342
16.4057
16.2211
15.8987
15.6097
15.3745
15.0644
14.672
14.2071
13.6292
13.0501
12.533
12.0007
11.46
10.8743
10.3297
23.5392
8.86856
4.45594
3.38979
2.88689
2.75812
3.9439
9.77803
24.5997
43.9995
54.3843
50.0472
39.4206
31.4844
27.5151
25.8449
25.1051
24.8136
24.7277
24.5808
24.2355
23.3446
27.1528
19.3437
35.479
14.565
12.411
11.1989
41.1103
11.9671
11.2023
8.22828
9.02762
4.4987
7.62722
10.9176
12.858
11.5211
10.1932
8.13784
38.4223
6.50743
5.92658
5.54066
5.49843
5.90016
6.69344
7.79845
8.52689
8.99826
9.03953
9.28369
9.56113
9.78154
9.84734
38.6269
9.86757
9.9074
9.96309
10.1433
10.3998
10.677
10.8682
11.1917
11.5856
12.0633
12.5831
13.1834
13.7274
14.2657
14.7686
15.014
15.1964
15.5212
15.8749
16.0877
16.3533
16.5903
16.8111
16.8586
16.9097
16.8989
16.6681
16.3914
16.227
16.0374
15.7771
15.5113
15.2068
14.9783
14.645
14.2811
13.77
13.213
12.6734
12.1496
11.6305
11.1032
10.5366
10.0199
20.3337
4.33158
2.0134
1.67889
1.55724
1.53113
2.07885
5.3139
15.8356
33.4558
46.2946
46.2188
39.0493
32.2333
28.0751
25.9523
24.8063
24.1229
23.6177
23.0175
22.2751
21.2833
19.8895
18.5533
17.4309
16.787
15.9804
14.6071
13.8369
14.0427
13.128
41.549
8.62949
5.17718
4.31513
6.67996
42.3062
7.57516
5.73924
4.45423
3.32634
3.2908
38.1214
2.40744
2.4531
2.95737
3.96117
5.35722
6.34299
7.06018
7.35528
7.81286
8.26096
8.60608
8.77599
8.89172
8.93382
9.00632
9.10625
9.33434
9.56642
9.8862
10.1395
10.4775
10.8901
11.3691
11.9184
12.549
13.1286
13.6845
14.1482
14.5003
14.7815
15.0599
15.3766
15.7098
15.9339
16.0796
16.2321
16.3427
16.4028
16.3232
16.088
15.9708
15.8721
15.5927
15.4464
15.0686
14.8556
14.5607
14.2597
13.8499
13.3532
12.8013
12.2971
11.7604
11.2617
10.7449
10.2
9.7158
0.486293
0.482798
0.522899
0.559155
0.633791
0.738535
1.00287
2.40098
7.77547
19.9776
33.2996
37.9571
35.6275
31.5201
28.1536
25.8336
24.0957
22.5754
21.0508
19.3359
17.4951
15.7447
14.2508
13.2138
12.7016
12.7174
13.447
14.6364
15.8305
16.4817
14.9353
11.6954
7.732
7.43699
43.4426
4.32561
2.87979
2.80075
4.02108
4.31174
4.42271
4.12726
4.07825
3.94771
3.68366
3.40549
2.3362
1.75112
2.21102
3.22222
3.94328
4.83264
5.63839
6.25685
6.66339
6.93952
7.13542
7.3169
7.54199
7.80222
8.14986
8.59159
8.89669
9.26789
9.73375
10.2809
10.8763
11.4908
12.0956
12.7063
13.1988
13.6545
13.9546
14.3297
14.6741
14.9291
15.1851
15.3824
15.5422
15.635
15.6427
15.5712
15.3816
15.2269
15.1243
14.9942
14.7109
14.4604
14.1491
13.8862
13.5795
13.1284
12.6723
12.1568
11.6345
11.143
10.6634
10.1729
9.66901
9.21124
0.0867718
0.12401
0.164575
0.207426
0.265606
0.32711
0.394408
0.590793
1.54591
4.84705
11.3789
18.2276
21.2822
21.1943
19.8683
18.2719
16.7027
15.0866
13.3047
11.4051
9.64631
8.35344
7.5845
7.33587
7.51132
7.97512
8.78716
9.93262
11.4185
13.1256
14.0827
12.5677
9.17317
7.48143
6.61509
5.33286
4.4579
4.26835
4.45678
4.33984
4.17878
3.93372
3.67519
3.48029
2.87727
1.85748
1.8819
3.21483
2.96614
2.75917
1.71066
1.42968
1.7579
2.44226
3.12267
3.65552
4.10964
4.52345
4.99208
5.45363
6.00725
6.56722
7.07822
7.59562
8.16618
8.78507
9.38695
10.0427
10.6921
11.3419
11.8816
12.3895
12.8216
13.2161
13.5837
13.8819
14.1551
14.3544
14.5079
14.5573
14.5596
14.5115
14.375
14.2692
14.1932
14.0557
13.7791
13.4586
13.2232
12.902
12.5449
12.1546
11.7081
11.2058
10.7417
10.2868
9.84871
9.39005
8.92412
8.51892
0.0131683
0.0345503
0.0649748
0.102442
0.136151
0.167328
0.196037
0.211386
0.259713
0.464793
0.900776
1.72154
2.87527
3.90906
4.69981
5.12115
5.24905
5.0795
4.65634
4.19137
3.88337
3.80049
3.94422
4.31953
4.84694
5.49713
6.14796
6.89664
7.71645
8.72482
9.67423
10.0542
9.27087
7.93613
6.82376
5.9487
5.35308
4.97199
4.69435
4.43645
4.13274
3.79415
3.42805
2.97966
2.47214
2.1255
2.44208
2.2588
1.39617
1.46984
2.53595
2.47069
2.19443
1.96485
1.16293
1.12561
1.25318
1.6173
2.19877
2.86266
3.6127
4.34991
5.07802
5.78781
6.51205
7.19767
7.87864
8.58239
9.27732
9.90526
10.4906
11.0762
11.5602
11.9914
12.3678
12.7189
12.9957
13.2182
13.3555
13.4135
13.4168
13.381
13.321
13.2175
13.1794
12.9827
12.7428
12.4437
12.1551
11.8687
11.5047
11.1116
10.7069
10.2447
9.83625
9.4218
9.00536
8.5957
8.17534
7.80896
0.00293715
0.0132263
0.0288946
0.0492409
0.0720656
0.0900651
0.104517
0.119268
0.124323
0.121489
0.148408
0.194484
0.282076
0.435323
0.611322
0.762203
0.859636
0.910053
0.943624
1.00829
1.12319
1.34157
1.67845
2.16579
2.77837
3.40586
3.93628
4.32498
4.64189
4.89667
5.07678
5.06306
4.84124
4.47185
4.03395
3.70326
3.43332
3.18531
3.00728
2.92916
2.90943
2.82333
2.74336
2.67458
2.53558
2.28655
1.91974
1.56966
1.6368
1.87457
1.39586
0.973302
1.17092
1.97045
1.95392
1.69052
1.66881
1.18748
0.824503
0.953468
1.49706
2.27064
3.11915
3.97613
4.81601
5.61475
6.38767
7.14109
7.80895
8.47138
9.09014
9.68381
10.1655
10.6261
11.0492
11.4103
11.7073
11.9412
12.0895
12.1953
12.2059
12.1813
12.1359
12.0914
12.0059
11.8385
11.5903
11.3475
11.064
10.7681
10.4105
10.0487
9.67942
9.27212
8.90172
8.53237
8.16322
7.79585
7.42805
7.10205
0.0010625
0.00575684
0.0140826
0.0246012
0.0353656
0.0456279
0.053618
0.0611988
0.0691964
0.0727689
0.0664976
0.0738226
0.078326
0.079369
0.107489
0.133293
0.153477
0.168719
0.185976
0.218003
0.278946
0.38706
0.557397
0.797481
1.17155
1.55474
1.8529
2.02867
2.08137
2.05145
1.97748
1.86281
1.71867
1.56935
1.42857
1.33208
1.26927
1.22121
1.21047
1.24157
1.30145
1.36454
1.45026
1.57148
1.68588
1.74596
1.70824
1.57175
1.3467
1.10831
1.07832
1.29425
1.19999
0.780867
0.672958
0.945623
1.46552
1.30706
1.17539
0.918198
0.612434
0.8622
1.53726
2.36671
3.24123
4.10675
4.93858
5.69721
6.39595
7.06927
7.69162
8.25222
8.74607
9.21588
9.64329
9.99329
10.3032
10.5455
10.7212
10.8435
10.8938
10.8955
10.8727
10.8332
10.7692
10.6093
10.4067
10.1665
9.91429
9.63997
9.30639
8.9776
8.64406
8.29706
7.97373
7.65109
7.33094
7.00842
6.6874
6.40018
0.000174099
0.00291873
0.00692783
0.012455
0.0180328
0.0233592
0.0272909
0.0302852
0.0352276
0.0392048
0.0406209
0.0376111
0.0418528
0.0446471
0.0435273
0.0393439
0.0430384
0.0461741
0.0500161
0.0568408
0.0707583
0.095934
0.137123
0.195471
0.279192
0.404426
0.509767
0.57958
0.606556
0.602106
0.578241
0.545004
0.511003
0.481532
0.458314
0.445884
0.443474
0.449262
0.468567
0.501695
0.546609
0.600905
0.672333
0.760125
0.86742
0.982436
1.06942
1.11062
1.08663
1.00211
0.863701
0.718429
0.697481
0.83984
0.832531
0.544827
0.433899
0.705452
1.03693
0.856213
0.864671
0.448539
0.599983
1.16936
1.9374
2.75491
3.56637
4.33761
5.04893
5.71484
6.29807
6.8578
7.33972
7.79412
8.17897
8.53337
8.83746
9.09421
9.29613
9.43829
9.52145
9.55594
9.55718
9.52658
9.45964
9.33869
9.17444
8.96528
8.75078
8.49058
8.19917
7.91664
7.62924
7.34127
7.06559
6.7899
6.5147
6.23647
5.96006
5.71424
0
0.0014028
0.0032938
0.00601784
0.00952498
0.0119851
0.0142779
0.0162299
0.0183666
0.0207484
0.0226613
0.023735
0.0229256
0.0251625
0.0271544
0.0275915
0.0260777
0.0225441
0.0236429
0.0255025
0.0277474
0.0307454
0.0385344
0.0484928
0.0613496
0.0759808
0.0893398
0.108696
0.12656
0.138799
0.145285
0.147653
0.147976
0.147939
0.148671
0.151134
0.157618
0.167327
0.181993
0.202471
0.227326
0.256283
0.29576
0.343912
0.401669
0.468249
0.534576
0.59445