/*--------------------------------*- C++ -*----------------------------------*\
  =========                 |
  \\      /  F ield         | OpenFOAM: The Open Source CFD Toolbox
   \\    /   O peration     | Website:  https://openfoam.org
    \\  /    A nd           | Version:  6
     \\/     M anipulation  |
\*---------------------------------------------------------------------------*/
FoamFile
{
    version     2.0;
    format      ascii;
    class       surfaceScalarField;
    location    "0.1";
    object      phi;
}
// * * * * * * * * * * * * * * * * * * * * * * * * * * * * * * * * * * * * * //

dimensions      [1 0 -1 0 0 0 0];

internalField   nonuniform List<scalar> 
15820
(
4.05359e-07
5.21931e-08
2.54109e-07
4.62752e-08
1.69432e-07
5.28262e-08
1.19571e-07
3.11389e-08
1.18463e-07
3.93236e-08
1.32788e-07
1.42541e-08
2.07493e-07
3.32937e-08
3.09767e-07
7.20248e-08
3.73698e-07
1.0176e-07
4.00706e-07
4.79268e-08
4.10041e-07
1.50957e-08
3.76212e-07
2.13234e-08
3.38379e-07
2.74277e-08
2.86331e-07
9.60675e-08
2.88936e-07
1.25136e-07
2.58217e-07
1.64503e-07
1.23638e-07
1.23083e-08
9.86847e-08
1.12826e-08
1.31442e-07
8.56672e-08
1.50077e-07
5.89198e-08
1.25999e-07
2.17388e-08
9.52938e-08
9.16475e-09
8.00147e-08
1.00477e-09
7.26069e-08
2.27045e-09
7.7459e-08
-1.10985e-09
7.65851e-08
-2.31846e-10
7.17906e-08
1.12225e-08
7.20619e-08
3.40725e-09
8.34309e-08
-1.36831e-08
8.31621e-08
-2.03798e-07
7.20704e-08
-3.71927e-09
6.79948e-08
1.94038e-09
6.7133e-08
-4.6958e-10
7.02177e-08
-4.96932e-10
7.29942e-08
6.00269e-09
7.62142e-08
7.03114e-09
7.7093e-08
8.25433e-09
7.27696e-08
8.18764e-09
6.78201e-08
6.579e-09
6.45749e-08
9.2943e-09
6.5444e-08
7.46235e-09
6.30714e-08
6.64569e-09
6.01454e-08
4.73532e-09
5.98051e-08
7.20961e-09
5.68668e-08
-2.88279e-09
5.44921e-08
-3.68295e-09
6.0438e-08
-9.02534e-09
6.30326e-08
3.83487e-09
6.73485e-08
1.92783e-10
8.26866e-08
3.69939e-08
7.87139e-08
5.07162e-10
7.56219e-08
-1.98023e-09
7.60492e-08
-2.9435e-10
8.08904e-08
3.61354e-09
7.77436e-08
-6.58298e-09
7.69411e-08
-2.3591e-09
7.89093e-08
-3.81407e-09
7.39043e-08
-2.78925e-09
7.20275e-08
1.42394e-09
6.80512e-08
4.5103e-09
6.57417e-08
-2.89965e-09
6.0581e-08
7.83875e-09
5.60725e-08
5.90343e-09
5.08789e-08
4.02176e-09
4.86137e-08
4.77828e-09
4.57035e-08
3.1945e-09
4.4296e-08
1.48687e-09
4.24738e-08
1.02853e-09
4.13468e-08
1.98709e-09
4.09033e-08
9.2659e-10
4.00378e-08
5.83584e-09
3.86451e-08
2.78486e-09
3.80847e-08
1.1876e-09
3.73124e-08
8.22233e-10
3.63341e-08
-2.29572e-08
3.56624e-08
-1.4951e-09
3.55128e-08
-4.13888e-09
3.4449e-08
1.06761e-08
3.40501e-08
-9.02742e-10
3.25612e-08
3.37412e-09
3.13543e-08
6.78764e-10
2.98356e-08
7.16348e-10
2.87044e-08
-8.82532e-10
2.74575e-08
1.42188e-09
2.60559e-08
1.52939e-09
2.42834e-08
1.50585e-09
2.24775e-08
6.98399e-10
2.15479e-08
5.0712e-10
2.16868e-08
-2.44493e-09
1.95623e-08
9.72226e-09
1.87092e-08
2.04304e-09
1.79178e-08
9.90317e-10
1.71556e-08
3.40197e-10
1.66256e-08
5.16862e-10
1.6131e-08
4.35303e-10
1.56052e-08
2.78629e-10
1.50276e-08
2.10105e-10
1.44998e-08
1.21578e-10
1.414e-08
3.57598e-10
2.38465e-11
1.20347e-06
2.09946e-07
7.12525e-07
2.43581e-07
4.80538e-07
2.16731e-07
3.46656e-07
1.40376e-07
3.48571e-07
-3.01632e-07
3.91087e-07
1.62586e-08
6.33453e-07
9.95721e-08
9.48068e-07
2.99198e-07
1.13615e-06
4.40767e-07
1.20765e-06
1.93515e-07
1.23098e-06
5.34858e-08
1.11308e-06
9.53124e-08
8.49881e-07
1.91515e-07
5.57971e-07
2.15873e-07
6.55608e-07
3.10863e-07
8.4377e-07
6.14879e-07
6.03106e-07
1.47243e-07
4.58277e-07
2.27468e-07
4.22068e-07
2.40218e-07
4.14027e-07
2.16911e-07
3.56471e-07
9.52993e-08
2.78019e-07
3.631e-08
2.39012e-07
2.46569e-09
2.18245e-07
8.76692e-09
2.36389e-07
-6.86553e-09
2.31513e-07
-2.49223e-10
2.14492e-07
4.83645e-08
2.15601e-07
1.2793e-08
2.17827e-07
-2.48274e-08
2.0611e-07
-2.03384e-07
1.96218e-07
-2.05173e-08
2.02604e-07
-7.98339e-09
2.00499e-07
-2.92427e-09
2.08111e-07
-2.72631e-09
2.13669e-07
2.26057e-08
2.22185e-07
2.53642e-08
2.24995e-07
3.06359e-08
2.13383e-07
3.06455e-08
2.06044e-07
1.38722e-08
1.95872e-07
4.51687e-08
1.91763e-07
3.42921e-08
1.86824e-07
2.42383e-08
1.77877e-07
1.89903e-08
1.79615e-07
2.60442e-08
1.69923e-07
-9.8903e-09
1.63218e-07
-1.49826e-08
1.81606e-07
-3.68973e-08
1.88352e-07
1.5855e-08
2.01751e-07
-2.47032e-09
2.36986e-07
3.1982e-08
2.22286e-07
-2.75606e-08
2.25147e-07
-1.42411e-08
2.26465e-07
-7.99508e-10
2.45084e-07
1.12957e-08
2.31645e-07
-2.20842e-08
2.29746e-07
-9.89865e-09
2.36306e-07
-1.55073e-08
2.19051e-07
-9.34276e-09
2.14669e-07
4.11212e-09
2.01735e-07
1.91257e-08
1.96724e-07
-1.1579e-08
1.80564e-07
3.20532e-08
1.67926e-07
2.26208e-08
1.49613e-07
1.86814e-08
1.44146e-07
1.81561e-08
1.36848e-07
1.13029e-08
1.32624e-07
5.93869e-09
1.26694e-07
4.88768e-09
1.23927e-07
7.22308e-09
1.20429e-07
5.69033e-09
1.17324e-07
8.3834e-09
1.15539e-07
8.70604e-09
1.13978e-07
4.66611e-09
1.11504e-07
3.42068e-09
1.08464e-07
-1.75591e-08
1.06805e-07
-6.17194e-09
1.07108e-07
-1.75292e-08
1.02681e-07
4.12148e-08
1.01775e-07
-3.27953e-09
9.76818e-08
1.29479e-08
9.4106e-08
2.70324e-09
8.88283e-08
3.54951e-09
8.59203e-08
-3.66072e-09
8.20109e-08
5.84265e-09
7.80559e-08
5.88735e-09
7.25037e-08
6.26295e-09
6.74107e-08
2.58371e-09
6.32629e-08
3.39144e-09
6.50508e-08
-2.28485e-08
5.76634e-08
3.95598e-08
5.60196e-08
7.23275e-09
5.37138e-08
3.89941e-09
5.12218e-08
1.54945e-09
4.97019e-08
1.99511e-09
4.82564e-08
1.70191e-09
4.66903e-08
1.10431e-09
4.49511e-08
8.49827e-10
4.3356e-08
5.01831e-10
4.22978e-08
1.40438e-09
9.2962e-11
1.88994e-06
5.39664e-07
9.77371e-07
5.79024e-07
6.24427e-07
4.94166e-07
5.53839e-07
4.49029e-07
7.06875e-07
-1.88346e-07
7.85634e-07
1.99427e-07
1.00397e-06
4.61149e-07
1.20429e-06
5.95548e-07
1.63666e-06
5.78453e-07
1.85241e-06
4.11582e-07
1.89311e-06
4.17593e-07
1.81972e-06
8.7971e-08
1.22479e-06
3.60168e-07
4.97284e-07
2.95e-07
6.38882e-07
2.54595e-07
1.27542e-06
8.43878e-07
1.29428e-06
6.28892e-07
8.49581e-07
6.87768e-07
4.48385e-07
2.02853e-07
4.56632e-07
2.19692e-07
4.98348e-07
2.39084e-07
4.3489e-07
6.76258e-08
3.92078e-07
1.64307e-09
3.64748e-07
1.71355e-08
4.01314e-07
-1.82056e-08
3.93629e-07
-2.2888e-09
3.58992e-07
1.18658e-07
3.56768e-07
3.05022e-08
3.48073e-07
-3.51244e-08
3.33792e-07
-1.7292e-07
3.21967e-07
-2.50196e-08
3.33932e-07
-2.06756e-08
3.29473e-07
-7.71793e-09
3.37855e-07
-9.72828e-09
3.40214e-07
4.36563e-08
3.50244e-07
4.94413e-08
3.55699e-07
5.99567e-08
3.44001e-07
6.08808e-08
3.30202e-07
4.4135e-08
3.15862e-07
8.52933e-08
3.17451e-07
6.3495e-08
3.05598e-07
5.11932e-08
2.91319e-07
3.99016e-08
2.9649e-07
5.43588e-08
2.82542e-07
-2.10515e-08
2.72822e-07
-3.3914e-08
3.04533e-07
-8.3523e-08
3.13519e-07
3.66648e-08
3.3239e-07
-5.7306e-09
3.89365e-07
5.57824e-09
3.68289e-07
-7.29276e-08
3.77458e-07
-3.38104e-08
3.79081e-07
-7.57005e-10
4.0841e-07
2.77516e-08
3.8439e-07
-4.44735e-08
3.79489e-07
-2.01355e-08
3.89131e-07
-3.19119e-08
3.59453e-07
-2.04828e-08
3.51772e-07
7.74403e-09
3.30138e-07
4.42345e-08
3.23814e-07
-2.09119e-08
2.97062e-07
7.2627e-08
2.7666e-07
4.95151e-08
2.47318e-07
4.26092e-08
2.38628e-07
3.94775e-08
2.25071e-07
2.60584e-08
2.18123e-07
1.31543e-08
2.10007e-07
1.05815e-08
2.05534e-07
1.54008e-08
1.99794e-07
1.3014e-08
1.94389e-07
1.20888e-08
1.9663e-07
1.32304e-08
1.94162e-07
1.82171e-08
1.84989e-07
1.27957e-08
1.79937e-07
-1.32213e-08
1.81292e-07
-9.89689e-09
1.78186e-07
-3.63979e-08
1.70504e-07
8.53849e-08
1.71317e-07
-8.05088e-09
1.65102e-07
4.40716e-08
1.56525e-07
8.79773e-09
1.47244e-07
8.66976e-09
1.42624e-07
-7.47088e-09
1.39304e-07
9.9752e-09
1.32978e-07
2.19608e-08
1.20469e-07
1.74704e-08
1.11937e-07
6.04112e-09
1.0492e-07
8.37125e-09
1.08874e-07
-5.67885e-08
9.54259e-08
8.9514e-08
9.31134e-08
1.53389e-08
9.17035e-08
6.33079e-09
8.98066e-08
2.6923e-09
8.50366e-08
1.33738e-08
8.0202e-08
6.23703e-09
7.75944e-08
2.47531e-09
7.4699e-08
1.92296e-09
7.55787e-08
-2.3889e-09
7.38914e-08
1.05147e-08
3.78326e-09
2.43361e-06
1.0844e-06
1.13006e-06
9.80936e-07
9.33877e-07
7.59471e-07
9.53187e-07
7.50628e-07
1.20967e-06
1.76373e-07
1.3859e-06
5.57461e-07
2.01686e-06
9.03961e-07
2.65901e-06
1.39284e-06
2.86454e-06
1.25047e-06
2.87706e-06
6.89295e-07
2.87212e-06
4.22379e-07
2.62888e-06
2.0961e-07
1.84244e-06
4.11861e-07
5.90919e-07
2.52633e-07
6.00385e-07
3.38662e-07
1.69142e-06
2.26007e-06
2.05087e-06
1.92585e-06
1.45047e-06
1.31725e-06
8.59411e-07
3.50297e-07
8.01186e-07
4.19675e-07
7.25913e-07
3.76825e-07
5.922e-07
1.13601e-07
5.39641e-07
7.3284e-09
5.10248e-07
2.74413e-08
5.76353e-07
-4.1515e-08
5.95316e-07
2.59045e-08
5.05716e-07
2.6685e-07
4.96806e-07
5.8907e-08
4.79596e-07
-4.41298e-08
4.62469e-07
-1.49539e-07
4.45189e-07
-1.44679e-08
4.62741e-07
-3.65991e-08
4.54281e-07
-1.49824e-08
4.60457e-07
-2.27637e-08
4.74079e-07
4.09838e-08
4.81843e-07
8.74395e-08
4.86208e-07
9.22498e-08
4.76241e-07
1.09117e-07
4.49062e-07
9.89697e-08
4.31228e-07
1.31756e-07
4.31471e-07
9.50047e-08
4.15122e-07
8.33883e-08
3.99024e-07
6.36548e-08
4.09655e-07
9.04682e-08
3.95393e-07
-3.68166e-08
3.85072e-07
-6.13609e-08
4.31791e-07
-1.52308e-07
4.40812e-07
7.04434e-08
4.64825e-07
-7.77825e-09
5.43393e-07
-2.20403e-08
5.18043e-07
-1.37571e-07
5.51663e-07
-7.22342e-08
5.52832e-07
2.66515e-08
5.68441e-07
8.07231e-08
5.33822e-07
-7.06684e-08
5.23923e-07
-3.01481e-08
5.35271e-07
-4.87421e-08
4.9322e-07
-3.80021e-08
4.80775e-07
1.27571e-08
4.50856e-07
7.99553e-08
4.44202e-07
-1.97951e-08
4.07406e-07
1.29334e-07
3.81047e-07
8.42375e-08
3.42278e-07
7.47351e-08
3.31067e-07
6.79018e-08
3.12228e-07
4.63277e-08
3.02865e-07
2.28041e-08
2.91991e-07
1.98845e-08
2.85799e-07
2.60367e-08
2.83604e-07
1.67116e-08
2.77358e-07
2.68951e-08
2.69173e-07
3.05965e-08
2.64405e-07
2.73345e-08
2.57526e-07
1.99217e-08
2.50119e-07
-8.73302e-09
2.46716e-07
-1.96965e-08
2.48598e-07
-7.00133e-08
2.3745e-07
1.34494e-07
2.34196e-07
-7.79257e-09
2.25691e-07
6.38999e-08
2.18281e-07
1.29824e-08
2.05121e-07
1.58406e-08
1.98768e-07
-1.09589e-08
1.89852e-07
2.00782e-08
1.81034e-07
3.21812e-08
1.68072e-07
2.86483e-08
1.56015e-07
1.14427e-08
1.46158e-07
1.55155e-08
1.5261e-07
-1.02369e-07
1.32988e-07
1.58543e-07
1.29937e-07
2.62736e-08
1.24836e-07
1.28952e-08
1.18741e-07
5.60134e-09
1.15293e-07
1.66952e-08
1.11956e-07
9.15443e-09
1.08314e-07
4.39267e-09
1.04266e-07
3.42027e-09
1.007e-07
-1.61213e-09
9.82805e-08
1.29097e-08
4.04278e-09
2.79612e-06
2.07992e-06
9.6056e-07
1.24402e-06
9.60447e-07
1.69482e-06
1.18447e-06
9.31602e-07
1.76552e-06
7.71779e-07
2.18345e-06
1.03578e-06
3.09937e-06
1.72122e-06
3.77684e-06
2.20861e-06
3.79803e-06
1.8562e-06
3.55665e-06
1.16185e-06
3.40069e-06
6.51761e-07
3.20344e-06
4.89429e-07
2.56889e-06
4.56157e-06
1.33888e-06
4.67531e-07
1.51964e-06
9.20558e-07
2.71176e-06
4.98818e-06
2.86617e-06
2.973e-06
2.13716e-06
1.87697e-06
1.43371e-06
6.50786e-07
1.17027e-06
6.72785e-07
9.18562e-07
5.02381e-07
7.27499e-07
1.61731e-07
6.84744e-07
2.55677e-08
6.59505e-07
3.82011e-08
7.29941e-07
-6.06014e-08
7.13146e-07
8.32676e-09
6.37643e-07
4.32303e-07
6.3303e-07
8.66596e-08
6.12643e-07
-5.63629e-08
5.94148e-07
-1.3533e-07
5.69007e-07
1.28649e-08
5.91166e-07
-5.63422e-08
5.7759e-07
-2.5072e-08
5.85686e-07
-4.44555e-08
5.78569e-07
6.9409e-08
5.87031e-07
1.2098e-07
5.91888e-07
1.30859e-07
5.73737e-07
1.41844e-07
5.91923e-07
9.59607e-08
5.66292e-07
1.97498e-07
5.33472e-07
1.57742e-07
5.16414e-07
1.16867e-07
5.02067e-07
8.74711e-08
5.20583e-07
1.3069e-07
5.10274e-07
-5.79065e-08
5.01193e-07
-9.70628e-08
5.65147e-07
-2.41147e-07
5.70981e-07
1.17365e-07
6.01398e-07
-8.49529e-09
6.97984e-07
-4.19395e-08
6.61825e-07
-2.15429e-07
6.75713e-07
-9.90424e-08
6.7708e-07
3.00775e-08
7.18146e-07
1.36405e-07
6.76773e-07
-9.55783e-08
6.61125e-07
-3.7175e-08
6.7348e-07
-5.99065e-08
6.17798e-07
-6.17257e-08
6.00342e-07
1.70151e-08
5.64124e-07
1.25867e-07
5.58651e-07
1.13675e-08
5.12048e-07
2.02808e-07
4.78663e-07
1.27249e-07
4.29618e-07
1.1631e-07
4.21402e-07
9.73962e-08
4.00161e-07
6.86347e-08
3.85259e-07
3.79203e-08
3.78069e-07
2.68825e-08
3.70423e-07
5.26731e-08
3.54397e-07
3.39816e-08
3.4651e-07
3.27266e-08
3.43474e-07
4.50508e-08
3.37435e-07
3.88263e-08
3.28891e-07
2.87273e-08
3.19094e-07
-3.52341e-09
3.14807e-07
-3.06145e-08
3.18203e-07
-1.14946e-07
3.03266e-07
1.79135e-07
2.98566e-07
-2.93866e-09
2.87871e-07
8.74593e-08
2.84425e-07
1.2764e-08
2.67545e-07
3.65655e-08
2.59986e-07
-1.27067e-08
2.48764e-07
4.74031e-08
2.31664e-07
5.13881e-08
2.15217e-07
4.28679e-08
1.99632e-07
1.91287e-08
1.86955e-07
2.49577e-08
1.9628e-07
-1.59792e-07
1.70221e-07
2.45002e-07
1.66448e-07
3.97607e-08
1.60064e-07
2.1212e-08
1.52255e-07
9.09674e-09
1.4782e-07
2.09299e-08
1.4351e-07
1.29235e-08
1.3884e-07
6.87687e-09
1.33659e-07
5.35629e-09
1.29231e-07
-7.33618e-10
1.26127e-07
1.60023e-08
4.46933e-09
3.54215e-06
3.38656e-06
1.27683e-06
1.66209e-06
1.18132e-06
2.02324e-06
1.74072e-06
1.58157e-06
2.65497e-06
1.87615e-06
3.27241e-06
1.8276e-06
3.66267e-06
3.47448e-06
4.17164e-06
3.11542e-06
4.65228e-06
1.86095e-06
4.4981e-06
1.60413e-06
4.46734e-06
2.88764e-07
4.27669e-06
4.88908e-07
3.66291e-06
3.54466e-06
2.59768e-06
7.49559e-07
2.70483e-06
2.17735e-06
3.24413e-06
6.77254e-06
3.09845e-06
3.69116e-06
2.77814e-06
2.10276e-06
2.03756e-06
1.1476e-06
1.41795e-06
9.92757e-07
1.03789e-06
6.01885e-07
8.69484e-07
1.68114e-07
8.86489e-07
7.15417e-08
8.38066e-07
1.20204e-07
8.91572e-07
-5.7225e-08
8.6765e-07
-2.07983e-08
7.68891e-07
6.72384e-07
7.72464e-07
1.09066e-07
7.50819e-07
-1.2723e-07
7.2997e-07
-1.27817e-07
6.95187e-07
5.57333e-08
7.20166e-07
-7.51124e-08
6.99259e-07
-3.70504e-08
7.09733e-07
-7.72721e-08
7.00067e-07
1.03372e-07
7.073e-07
1.57265e-07
7.09229e-07
1.74313e-07
6.83195e-07
1.67954e-07
6.6339e-07
1.30213e-07
6.29483e-07
2.41168e-07
6.33389e-07
1.78527e-07
6.4316e-07
1.28591e-07
6.32134e-07
1.74525e-07
6.3225e-07
1.9957e-07
6.29209e-07
-8.38413e-08
6.24819e-07
-1.41283e-07
7.06007e-07
-3.54889e-07
7.00192e-07
1.82878e-07
7.72155e-07
-4.32649e-08
8.84461e-07
-1.8918e-08
8.00695e-07
-3.06038e-07
8.43565e-07
-1.5142e-07
8.46578e-07
5.19016e-08
8.58684e-07
2.47461e-07
8.12027e-07
-1.1072e-07
7.89665e-07
-3.85593e-08
8.01691e-07
-5.49586e-08
7.32261e-07
-9.3225e-08
7.09933e-07
1.88361e-08
6.6881e-07
1.82162e-07
6.65706e-07
1.04084e-07
6.0946e-07
2.92225e-07
5.72143e-07
1.74656e-07
5.1635e-07
1.66951e-07
5.07165e-07
1.26001e-07
4.8233e-07
9.39974e-08
4.64716e-07
5.55667e-08
4.49475e-07
4.20548e-08
4.40416e-07
6.87914e-08
4.28963e-07
4.64704e-08
4.19681e-07
3.87525e-08
4.16189e-07
6.17713e-08
4.08982e-07
5.23565e-08
3.98865e-07
3.89322e-08
3.86651e-07
3.02677e-09
3.81465e-07
-4.15079e-08
3.86883e-07
-1.72338e-07
3.67815e-07
2.11782e-07
3.61762e-07
8.33321e-09
3.48952e-07
1.13141e-07
3.45531e-07
1.26006e-08
3.26293e-07
5.78778e-08
3.0979e-07
-1.51806e-09
2.94969e-07
6.53847e-08
2.81698e-07
6.76078e-08
2.61817e-07
6.01044e-08
2.42725e-07
2.9358e-08
2.2728e-07
3.68076e-08
2.39922e-07
-2.25694e-07
2.07038e-07
3.46419e-07
2.02594e-07
5.54585e-08
1.95031e-07
3.12105e-08
1.9132e-07
7.38017e-09
1.85997e-07
2.83228e-08
1.74855e-07
2.34022e-08
1.69162e-07
9.91664e-09
1.62871e-07
7.73197e-09
1.57602e-07
2.06874e-10
1.53822e-07
1.97972e-08
5.05973e-09
4.31711e-06
4.67188e-06
1.97636e-06
2.63929e-06
1.83874e-06
3.86175e-06
2.70075e-06
3.32079e-06
4.00861e-06
3.87584e-06
3.76427e-06
4.06153e-06
3.83305e-06
4.8418e-06
4.60998e-06
4.83858e-06
5.12353e-06
2.12757e-06
5.22114e-06
1.97467e-06
5.21914e-06
-6.17867e-07
4.8129e-06
6.58655e-07
4.39276e-06
1.98022e-06
3.9208e-06
1.10912e-06
3.97609e-06
3.94229e-06
4.27701e-06
7.96301e-06
3.65526e-06
3.96282e-06
2.81711e-06
2.14925e-06
2.0744e-06
1.39284e-06
1.51716e-06
1.00535e-06
1.11467e-06
6.65333e-07
9.46063e-07
2.38166e-07
9.73554e-07
1.26923e-07
9.58656e-07
1.40239e-07
1.05302e-06
-7.97299e-08
1.1351e-06
-9.43197e-08
9.45904e-07
-1.41435e-06
9.64142e-07
1.16658e-07
9.48148e-07
-1.39096e-07
8.75193e-07
-1.31223e-07
8.26239e-07
1.14416e-07
8.54181e-07
-9.01275e-08
8.21857e-07
-4.78716e-08
8.29894e-07
-1.24924e-07
8.12592e-07
1.35533e-07
8.17911e-07
1.90977e-07
8.17644e-07
2.18581e-07
7.85875e-07
1.86432e-07
7.6857e-07
1.60362e-07
7.63151e-07
2.51874e-07
7.67586e-07
2.62752e-07
7.17732e-07
1.97269e-07
7.08225e-07
1.93329e-07
7.42668e-07
2.41871e-07
7.49531e-07
-1.15084e-07
7.9978e-07
-2.32259e-07
9.01418e-07
-4.48857e-07
8.25461e-07
3.07509e-07
8.56406e-07
-3.73559e-08
9.75413e-07
1.55867e-09
9.24522e-07
-3.92636e-07
9.73738e-07
-1.48307e-07
9.81339e-07
7.61871e-08
9.86552e-07
3.84673e-07
9.37081e-07
-1.01695e-07
9.068e-07
-2.96611e-08
9.52111e-07
-5.83739e-08
8.71986e-07
-1.2207e-07
8.11175e-07
4.98267e-08
7.64858e-07
2.52147e-07
7.64901e-07
3.13213e-07
6.85349e-07
4.10224e-07
6.48682e-07
2.25985e-07
6.08782e-07
2.02384e-07
5.91709e-07
1.679e-07
5.56898e-07
1.28976e-07
5.40995e-07
7.12392e-08
5.24187e-07
5.88237e-08
5.14181e-07
8.77834e-08
5.01488e-07
6.00669e-08
4.91116e-07
4.45702e-08
4.87095e-07
8.02503e-08
4.78858e-07
6.76053e-08
4.6725e-07
5.04048e-08
4.54856e-07
9.17464e-09
4.48716e-07
-5.13248e-08
4.5437e-07
-2.4012e-07
4.31067e-07
2.31548e-07
4.316e-07
1.98852e-08
4.16978e-07
1.42812e-07
3.97065e-07
2.9741e-08
3.74294e-07
6.86373e-08
3.63057e-07
-1.75195e-09
3.46242e-07
8.69896e-08
3.31092e-07
8.67282e-08
3.07809e-07
8.03444e-08
2.89305e-07
3.82571e-08
2.7116e-07
5.79677e-08
2.83489e-07
-2.92543e-07
2.43361e-07
4.59104e-07
2.38344e-07
7.28542e-08
2.297e-07
4.28127e-08
2.18636e-07
1.19003e-08
2.12252e-07
3.43034e-08
2.05958e-07
2.89079e-08
1.99272e-07
1.34665e-08
1.91889e-07
1.05201e-08
1.85798e-07
1.22499e-09
1.81348e-07
2.43237e-08
5.80203e-09
5.23552e-06
6.03556e-06
3.23289e-06
5.45064e-06
3.251e-06
6.28812e-06
4.4391e-06
5.65588e-06
5.62838e-06
6.31823e-06
5.05069e-06
3.89903e-06
5.43442e-06
6.95511e-06
6.35236e-06
4.84514e-06
6.17553e-06
2.53387e-06
5.67391e-06
3.33222e-06
5.44306e-06
-2.17038e-06
5.25679e-06
5.07357e-07
4.87926e-06
1.57307e-07
4.48167e-06
1.66079e-06
4.67278e-06
5.37438e-06
4.55037e-06
8.06583e-06
3.67028e-06
3.75006e-06
2.76141e-06
2.04083e-06
2.08258e-06
1.49788e-06
1.57899e-06
9.728e-07
1.23675e-06
6.94926e-07
1.10715e-06
3.92468e-07
1.16282e-06
2.63312e-07
1.14887e-06
2.17324e-07
1.2209e-06
-5.6383e-08
1.17444e-06
-7.44925e-08
1.05777e-06
-1.17255e-06
1.04971e-06
1.50666e-07
1.03924e-06
-1.6502e-07
1.08113e-06
-1.9523e-07
1.02301e-06
1.21058e-07
9.97229e-07
-3.18354e-08
9.52303e-07
-5.36256e-08
9.58787e-07
-1.93002e-07
9.71421e-07
1.25866e-07
9.70467e-07
2.52423e-07
9.25835e-07
3.04513e-07
8.91599e-07
1.97252e-07
8.75065e-07
1.90377e-07
8.29188e-07
2.89394e-07
8.32794e-07
2.74353e-07
8.17162e-07
2.31198e-07
8.13172e-07
2.09447e-07
8.52413e-07
2.82213e-07
8.6204e-07
-1.47111e-07
8.52684e-07
-2.82088e-07
9.68697e-07
-5.65671e-07
9.3174e-07
3.77241e-07
9.715e-07
-3.89647e-08
1.09519e-06
4.78759e-08
1.03994e-06
-4.65094e-07
1.09067e-06
-2.08833e-07
1.10079e-06
1.12573e-07
1.09546e-06
5.16879e-07
1.047e-06
-6.35782e-08
1.00971e-06
-1.17421e-08
1.01961e-06
-3.77924e-09
9.31514e-07
-1.60663e-07
9.00483e-07
4.30996e-08
8.47498e-07
3.39386e-07
8.70064e-07
7.11459e-07
8.01326e-07
5.00153e-07
7.42364e-07
2.77738e-07
6.70652e-07
2.71478e-07
6.56984e-07
1.96839e-07
6.3169e-07
1.53774e-07
6.14029e-07
8.83801e-08
5.96221e-07
7.74148e-08
6.00152e-07
9.39134e-08
6.0265e-07
7.70752e-08
5.76813e-07
9.09177e-08
5.55999e-07
1.16289e-07
5.46868e-07
8.42298e-08
5.46388e-07
5.05484e-08
5.32138e-07
2.79795e-08
5.14738e-07
-5.95737e-08
5.22924e-07
-3.20963e-07
4.93019e-07
2.492e-07
4.9354e-07
3.96134e-08
4.77196e-07
1.76826e-07
4.53808e-07
5.21287e-08
4.27696e-07
8.06834e-08
4.15154e-07
-2.58808e-09
4.06162e-07
1.02696e-07
3.8935e-07
1.16594e-07
3.53105e-07
1.14784e-07
3.26995e-07
5.40922e-08
3.06201e-07
7.51668e-08
3.26992e-07
-3.63505e-07
2.79168e-07
5.77599e-07
2.73623e-07
9.14224e-08
2.64053e-07
5.58782e-08
2.51426e-07
1.90828e-08
2.44081e-07
4.11203e-08
2.36821e-07
3.52651e-08
2.29155e-07
1.755e-08
2.207e-07
1.37518e-08
2.13801e-07
2.16648e-09
2.08687e-07
2.96115e-08
6.65981e-09
6.54137e-06
6.99747e-06
4.8654e-06
7.03826e-06
4.33524e-06
9.31977e-06
5.50257e-06
6.41082e-06
6.88395e-06
7.16883e-06
6.77407e-06
2.94967e-06
6.93758e-06
7.90289e-06
7.09148e-06
5.30387e-06
6.85588e-06
2.73731e-06
6.07575e-06
-2.46756e-06
5.77664e-06
6.81008e-06
4.63307e-06
1.10927e-06
4.16576e-06
3.48626e-06
4.19912e-06
1.95796e-06
4.30237e-06
5.69172e-06
4.19019e-06
7.02708e-06
3.31494e-06
3.82407e-06
2.66022e-06
1.70292e-06
2.13386e-06
1.36853e-06
1.61511e-06
1.04671e-06
1.30394e-06
7.48687e-07
1.19277e-06
4.62815e-07
1.26113e-06
3.04099e-07
1.32383e-06
1.80964e-07
1.4637e-06
5.283e-08
1.39216e-06
-1.32108e-07
1.21994e-06
-9.60212e-07
1.25736e-06
1.37589e-07
1.25285e-06
-2.01876e-07
1.17469e-06
-1.46055e-07
1.108e-06
2.00753e-07
1.15502e-06
-7.00001e-09
1.10517e-06
-5.02766e-08
1.10903e-06
-2.85904e-07
1.06513e-06
1.59482e-07
1.11002e-06
2.38464e-07
1.10179e-06
3.58281e-07
1.00881e-06
2.55102e-07
1.04152e-06
1.78285e-07
9.83915e-07
3.07207e-07
9.34888e-07
3.31378e-07
9.22009e-07
2.60921e-07
9.23553e-07
2.22073e-07
9.631e-07
3.165e-07
9.74017e-07
-1.79116e-07
9.53408e-07
-3.33353e-07
1.08971e-06
-6.57811e-07
1.03696e-06
4.24347e-07
1.08324e-06
-4.77572e-08
1.20442e-06
1.19656e-07
1.14603e-06
-5.0797e-07
1.14555e-06
-2.18373e-07
1.15574e-06
1.28755e-07
1.23758e-06
4.77337e-07
1.19129e-06
-4.87445e-09
1.10143e-06
6.15284e-08
1.11114e-06
7.89263e-08
1.01741e-06
-1.93848e-07
9.82739e-07
3.26403e-08
9.49173e-07
4.20097e-07
9.59984e-07
9.25859e-07
8.38445e-07
3.10926e-07
8.0211e-07
3.33394e-07
7.57369e-07
2.94317e-07
7.35344e-07
2.30926e-07
7.0305e-07
1.84837e-07
6.83838e-07
1.06822e-07
6.80312e-07
8.30871e-08
6.68748e-07
1.27218e-07
6.41489e-07
1.05416e-07
6.30449e-07
9.8221e-08
6.22656e-07
1.39459e-07
6.12793e-07
1.01788e-07
5.98192e-07
6.4496e-08
5.81804e-07
3.73249e-08
5.76718e-07
-6.24678e-08
5.87806e-07
-4.103e-07
5.65862e-07
2.76679e-07
5.54203e-07
9.32329e-08
5.36062e-07
1.93322e-07
5.34536e-07
6.71004e-08
4.92751e-07
1.29582e-07
4.65973e-07
1.13441e-08
4.56718e-07
1.20732e-07
4.38192e-07
1.53605e-07
3.97561e-07
1.51751e-07
3.67979e-07
7.27231e-08
3.44672e-07
9.5312e-08
3.70323e-07
-4.27776e-07
3.14438e-07
6.94208e-07
3.08416e-07
1.10644e-07
2.98083e-07
7.02146e-08
2.83951e-07
2.46265e-08
2.75647e-07
4.87515e-08
2.67427e-07
4.24902e-08
2.58795e-07
2.21443e-08
2.49294e-07
1.73582e-08
2.41598e-07
3.25709e-09
2.35823e-07
3.55166e-08
7.60951e-09
7.30398e-06
7.96866e-06
6.72813e-06
8.34302e-06
6.19455e-06
1.23369e-05
6.60113e-06
7.87923e-06
7.69074e-06
6.85075e-06
7.28526e-06
3.40911e-06
7.24398e-06
9.13829e-06
7.49389e-06
5.64352e-06
6.71715e-06
3.20917e-06
6.4649e-06
-2.1728e-06
5.98839e-06
4.95178e-06
4.01816e-06
2.3747e-06
2.5697e-06
2.66577e-06
2.90944e-06
2.44731e-06
3.68027e-06
4.54652e-06
3.71101e-06
5.81664e-06
3.01206e-06
3.45581e-06
2.266e-06
1.47006e-06
1.86163e-06
1.5245e-06
1.66292e-06
9.03007e-07
1.4213e-06
9.55364e-07
1.31438e-06
5.49772e-07
1.39479e-06
3.1094e-07
1.37613e-06
2.08219e-07
1.51596e-06
1.72253e-07
1.52554e-06
-2.31588e-07
1.37117e-06
-8.34719e-07
1.31912e-06
1.88499e-07
1.32672e-06
-2.16931e-07
1.32966e-06
-1.72314e-07
1.25864e-06
1.86207e-07
1.33886e-06
4.18584e-08
1.38035e-06
-6.52601e-08
1.45905e-06
-4.54352e-07
1.30723e-06
2.59871e-07
1.21012e-06
3.56989e-07
1.18928e-06
4.19109e-07
1.14107e-06
2.54259e-07
1.1138e-06
2.03044e-07
1.04354e-06
3.40418e-07
1.04387e-06
3.32623e-07
1.03401e-06
2.85643e-07
1.04023e-06
2.31618e-07
1.07949e-06
3.37992e-07
1.09248e-06
-2.08469e-07
1.05848e-06
-3.77626e-07
1.21364e-06
-6.84926e-07
1.13959e-06
4.15689e-07
1.19215e-06
-6.79906e-08
1.30541e-06
2.02379e-07
1.24375e-06
-5.00925e-07
1.23327e-06
-2.16991e-07
1.24508e-06
1.4242e-07
1.27614e-06
5.64088e-07
1.23062e-06
2.89628e-08
1.23812e-06
4.11011e-08
1.29205e-06
1.83627e-07
1.13724e-06
-1.48111e-07
1.05364e-06
4.93406e-08
9.92709e-07
5.46795e-07
9.74967e-07
1.04243e-06
8.74618e-07
4.94188e-07
8.49686e-07
3.84461e-07
8.12458e-07
3.23177e-07
8.20908e-07
2.4864e-07
7.84083e-07
2.35146e-07
7.50392e-07
1.39559e-07
7.50849e-07
8.63251e-08
7.41927e-07
1.6517e-07
7.09558e-07
1.39111e-07
6.95218e-07
1.10248e-07
6.87061e-07
1.62403e-07
6.76588e-07
1.19686e-07
6.60299e-07
7.94774e-08
6.41866e-07
4.85262e-08
6.51825e-07
-7.2469e-08
6.84214e-07
-5.14009e-07
6.29381e-07
4.29663e-07
5.97077e-07
1.68974e-07
5.77664e-07
2.01424e-07
5.64092e-07
8.58265e-08
5.32353e-07
1.434e-07
5.15406e-07
1.78441e-08
4.93824e-07
1.53159e-07
4.7335e-07
1.81343e-07
4.41037e-07
1.80149e-07
4.08078e-07
9.39935e-08
3.82507e-07
1.18482e-07
4.13389e-07
-4.75181e-07
3.49273e-07
7.97072e-07
3.42643e-07
1.30145e-07
3.31734e-07
8.56516e-08
3.16164e-07
3.05862e-08
3.06927e-07
5.71586e-08
2.97765e-07
5.0607e-08
2.88177e-07
2.72338e-08
2.77653e-07
2.14269e-08
2.69172e-07
4.57089e-09
2.62743e-07
4.40531e-08
8.60296e-09
7.55747e-06
9.21964e-06
6.95924e-06
7.99779e-06
6.84401e-06
1.43717e-05
7.53841e-06
8.82982e-06
8.25228e-06
6.04977e-06
8.23804e-06
3.66667e-06
7.77213e-06
9.36377e-06
7.64108e-06
6.64932e-06
6.94991e-06
3.23679e-06
6.25322e-06
-3.0778e-06
5.05435e-06
4.12652e-06
3.1937e-06
3.71206e-06
1.83821e-06
2.65097e-06
2.11341e-06
2.07565e-06
2.91799e-06
3.36271e-06
3.39323e-06
4.79927e-06
2.94338e-06
3.47535e-06
2.18738e-06
1.49349e-06
1.7907e-06
1.45399e-06
1.664e-06
8.19935e-07
1.49154e-06
9.94383e-07
1.4386e-06
6.03154e-07
1.53344e-06
3.13573e-07
1.49961e-06
2.36668e-07
1.64633e-06
2.03938e-07
1.58195e-06
-3.30363e-07
1.52406e-06
-8.56172e-07
1.45194e-06
2.30938e-07
1.47669e-06
-2.23923e-07
1.49157e-06
-1.95205e-07
1.4135e-06
2.638e-07
1.4943e-06
1.39803e-07
1.43837e-06
-5.20476e-08
1.46371e-06
-5.98914e-07
1.48372e-06
7.43587e-08
1.47221e-06
4.4006e-07
1.44565e-06
4.93097e-07
1.38575e-06
2.73067e-07
1.3369e-06
2.34085e-07
1.25325e-06
3.84889e-07
1.17e-06
4.01872e-07
1.15732e-06
3.07587e-07
1.16887e-06
2.35672e-07
1.2016e-06
3.46628e-07
1.21238e-06
-2.31664e-07
1.16304e-06
-4.09728e-07
1.33393e-06
-5.824e-07
1.2991e-06
2.25191e-07
1.35749e-06
-7.52618e-08
1.39528e-06
3.23646e-07
1.33446e-06
-4.38074e-07
1.31354e-06
-2.0354e-07
1.32385e-06
1.5356e-07
1.41327e-06
6.14207e-07
1.36526e-06
4.75666e-08
1.30608e-06
8.85057e-08
1.30744e-06
3.52576e-07
1.15587e-06
-8.51063e-08
1.1182e-06
-3.93839e-09
1.02972e-06
7.28056e-07
1.03313e-06
9.59706e-07
9.53608e-07
7.12499e-07
9.17911e-07
4.37398e-07
8.72708e-07
3.60451e-07
8.60652e-07
2.65753e-07
8.34509e-07
2.58685e-07
8.13644e-07
1.59274e-07
7.97986e-07
1.07366e-07
8.07694e-07
1.63199e-07
7.91672e-07
1.70151e-07
7.57805e-07
1.43371e-07
7.49145e-07
1.84621e-07
7.38176e-07
1.37759e-07
7.20263e-07
9.5673e-08
6.99809e-07
6.1426e-08
6.93835e-07
-5.5565e-08
7.16263e-07
-5.93587e-07
6.71442e-07
5.75971e-07
6.67285e-07
2.3513e-07
6.50746e-07
2.02626e-07
6.17991e-07
1.25491e-07
5.80991e-07
1.60827e-07
5.63489e-07
2.8877e-08
5.40313e-07
1.89241e-07
5.18271e-07
2.11725e-07
4.83687e-07
2.10538e-07
4.47287e-07
1.17963e-07
4.19792e-07
1.44721e-07
4.64329e-07
-4.98987e-07
3.91731e-07
8.78648e-07
3.7631e-07
1.57633e-07
3.64976e-07
1.01805e-07
3.48058e-07
3.68644e-08
3.37908e-07
6.63165e-08
3.27825e-07
5.95279e-08
3.17288e-07
3.27104e-08
3.05759e-07
2.59745e-08
2.96573e-07
6.35998e-09
2.89491e-07
4.9194e-08
9.57485e-09
7.83889e-06
1.05755e-05
7.69977e-06
9.38523e-06
7.46356e-06
1.45683e-05
8.06516e-06
9.70105e-06
8.36838e-06
5.88042e-06
8.4052e-06
4.9667e-06
7.80955e-06
5.97988e-06
7.40609e-06
6.69587e-06
6.65934e-06
3.52362e-06
6.33336e-06
6.66536e-06
5.19755e-06
4.16688e-06
3.65228e-06
3.83573e-06
2.02383e-06
2.9606e-06
1.89266e-06
2.31426e-06
2.70827e-06
3.43672e-06
3.2226e-06
4.72757e-06
2.84972e-06
3.48781e-06
2.18196e-06
1.55374e-06
1.82183e-06
1.26966e-06
1.80156e-06
9.50951e-07
1.59853e-06
1.07633e-06
1.61665e-06
6.17126e-07
1.73201e-06
3.98055e-07
1.62874e-06
3.23872e-07
1.77076e-06
2.26855e-07
1.89935e-06
-4.59958e-07
1.77453e-06
-8.10568e-07
1.58849e-06
3.54461e-07
1.72369e-06
-3.12174e-07
1.75414e-06
-1.81486e-07
1.57122e-06
4.16822e-07
1.64657e-06
2.74363e-07
1.57443e-06
-5.14311e-08
1.61866e-06
-7.63837e-07
1.55039e-06
1.16353e-07
1.53624e-06
4.82739e-07
1.51461e-06
5.59844e-07
1.53498e-06
1.75582e-07
1.48942e-06
2.55726e-07
1.31749e-06
4.94468e-07
1.30722e-06
3.78864e-07
1.29252e-06
3.17996e-07
1.30635e-06
2.36984e-07
1.32887e-06
3.3835e-07
1.3351e-06
-2.4834e-07
1.26633e-06
-4.23553e-07
1.44487e-06
-2.34316e-07
1.3146e-06
-1.42401e-07
1.37849e-06
-1.07358e-07
1.46532e-06
2.96266e-07
1.54631e-06
-3.98646e-07
1.51876e-06
-1.73208e-07
1.45694e-06
2.47139e-07
1.41539e-06
7.75779e-07
1.36498e-06
5.02598e-08
1.31302e-06
1.28754e-07
1.30965e-06
4.7337e-07
1.21063e-06
-4.43214e-08
1.15262e-06
-6.78915e-08
1.05223e-06
9.59351e-07
1.07776e-06
9.26873e-07
9.97184e-07
9.74093e-07
9.64809e-07
4.9103e-07
9.25744e-07
3.95176e-07
9.20672e-07
2.72324e-07
9.21047e-07
2.53757e-07
9.27798e-07
1.68893e-07
8.86311e-07
1.68429e-07
8.47979e-07
2.07346e-07
8.31704e-07
1.88084e-07
8.18043e-07
1.57822e-07
8.08874e-07
2.05511e-07
7.97465e-07
1.55614e-07
7.77994e-07
1.12851e-07
7.55469e-07
7.6536e-08
7.48534e-07
-2.44102e-08
7.76741e-07
-6.3344e-07
7.29179e-07
7.92138e-07
7.07169e-07
-3.44853e-07
6.87367e-07
1.90714e-07
6.67388e-07
1.4918e-07
6.28246e-07
1.78933e-07
6.10193e-07
4.52247e-08
5.8561e-07
2.28655e-07
5.62161e-07
2.44554e-07
5.25367e-07
2.42828e-07
4.85472e-07
1.44815e-07
4.56531e-07
1.73849e-07
4.97932e-07
-4.59274e-07
4.17937e-07
8.90557e-07
4.2034e-07
1.65964e-07
4.08995e-07
1.2606e-07
3.7962e-07
5.46998e-08
3.68571e-07
7.62008e-08
3.57595e-07
6.93579e-08
3.46116e-07
3.87333e-08
3.33598e-07
3.09562e-08
3.23734e-07
1.19132e-08
3.16017e-07
5.41071e-08
1.05734e-08
8.06956e-06
1.07259e-05
8.53469e-06
9.89506e-06
8.23796e-06
1.309e-05
8.41827e-06
1.10489e-05
8.18993e-06
5.55943e-06
7.94668e-06
5.90142e-06
7.20213e-06
4.68203e-06
6.80445e-06
6.15355e-06
5.93444e-06
2.84459e-06
5.50651e-06
4.90616e-06
4.5664e-06
3.83332e-06
3.42762e-06
3.7225e-06
2.16695e-06
3.11152e-06
2.04592e-06
2.56789e-06
2.82403e-06
3.89638e-06
3.2611e-06
4.99924e-06
2.85154e-06
3.4726e-06
2.26828e-06
1.59304e-06
1.88289e-06
1.37177e-06
1.86621e-06
9.06755e-07
1.71614e-06
1.09342e-06
1.7772e-06
6.13227e-07
1.90355e-06
6.12898e-07
1.75528e-06
4.47298e-07
1.88421e-06
1.89851e-07
1.91558e-06
-4.13725e-07
1.81589e-06