/*--------------------------------*- C++ -*----------------------------------*\
  =========                 |
  \\      /  F ield         | OpenFOAM: The Open Source CFD Toolbox
   \\    /   O peration     | Website:  https://openfoam.org
    \\  /    A nd           | Version:  6
     \\/     M anipulation  |
\*---------------------------------------------------------------------------*/
FoamFile
{
    version     2.0;
    format      ascii;
    class       volScalarField;
    location    "0.1";
    object      rho;
}
// * * * * * * * * * * * * * * * * * * * * * * * * * * * * * * * * * * * * * //

dimensions      [1 -3 0 0 0 0 0];

internalField   nonuniform List<scalar> 
8000
(
1.12619
0.934096
0.536818
0.310484
0.258645
0.317441
0.436918
0.641318
0.899194
1.08272
1.145
1.13945
1.10329
0.843444
0.850315
0.884272
0.377965
0.235131
0.298325
0.416211
0.383755
0.298161
0.231839
0.204293
0.206323
0.217454
0.221309
0.22023
0.219817
0.275617
0.244506
0.204239
0.20462
0.212944
0.224556
0.23584
0.242871
0.24009
0.226283
0.216342
0.220304
0.221096
0.214819
0.204993
0.198768
0.196643
0.201994
0.212026
0.23157
0.234761
0.27319
0.260521
0.261261
0.262333
0.265491
0.267566
0.269769
0.268974
0.266523
0.262005
0.255282
0.24626
0.236278
0.217545
0.212969
0.202533
0.203467
0.199305
0.19805
0.197167
0.203705
0.195137
0.195393
0.196678
0.196817
0.196489
0.196537
0.19559
0.197684
0.19766
0.196799
0.196558
0.195855
0.196378
0.195886
0.195693
0.196181
0.196513
0.203779
0.197256
0.199774
0.201886
0.2038
0.205166
0.209724
0.212628
0.214634
0.216212
0.215989
0.222233
1.12695
0.908147
0.504689
0.301639
0.253691
0.316045
0.446565
0.650833
0.915498
1.09467
1.14832
1.13704
1.07611
0.545318
0.580312
0.788089
0.608
0.426434
0.389399
0.379026
0.356295
0.287401
0.228489
0.204133
0.207296
0.219658
0.22214
0.220405
0.218024
0.219884
0.206719
0.203025
0.204116
0.211341
0.220629
0.229752
0.236045
0.234373
0.221625
0.225125
0.21404
0.217961
0.212941
0.203961
0.198552
0.19713
0.202738
0.212411
0.230334
0.242457
0.252536
0.257947
0.261805
0.263013
0.265934
0.267582
0.269319
0.268153
0.265523
0.261069
0.25434
0.245515
0.235668
0.217172
0.208894
0.20234
0.203304
0.199216
0.197989
0.197073
0.196488
0.195063
0.195381
0.196652
0.196889
0.196473
0.196499
0.195574
0.197617
0.197676
0.196769
0.196553
0.195823
0.196371
0.195898
0.195702
0.196191
0.196532
0.197735
0.197279
0.199801
0.201919
0.203833
0.205185
0.209772
0.212667
0.214674
0.216254
0.215991
0.222284
1.12542
0.791233
0.396478
0.236649
0.307225
0.375219
0.527415
0.513349
0.65585
1.09015
0.976598
1.13537
1.04094
0.316862
0.328745
0.558163
0.72735
0.622077
0.283089
0.212159
0.277975
0.263657
0.22168
0.203919
0.209183
0.225916
0.224739
0.220816
0.215446
0.208992
0.203532
0.201224
0.202724
0.208233
0.213362
0.218131
0.223402
0.223963
0.22012
0.215905
0.217467
0.215784
0.209971
0.202116
0.19828
0.198258
0.204476
0.214268
0.230284
0.241068
0.250822
0.260215
0.26446
0.264568
0.266609
0.267371
0.268301
0.266526
0.263576
0.258386
0.252433
0.24398
0.234382
0.216044
0.208685
0.201934
0.199989
0.199016
0.197866
0.196882
0.196167
0.194933
0.205336
0.196593
0.196851
0.204913
0.196415
0.19553
0.197483
0.203885
0.1967
0.196542
0.195751
0.196357
0.204836
0.195721
0.196216
0.196572
0.197818
0.197329
0.199862
0.201993
0.214881
0.217196
0.209878
0.212754
0.214763
0.216348
0.23769
0.222398
1.11895
0.643917
0.36466
0.313685
0.368574
0.470969
0.65069
0.855273
1.05669
1.14389
1.16226
1.14703
1.099
0.341425
0.219647
0.451646
0.801298
0.744461
0.367943
0.306745
0.308056
0.258096
0.216099
0.202769
0.211242
0.258122
0.228746
0.221205
0.214525
0.206298
0.201501
0.199962
0.201412
0.205342
0.206202
0.224185
0.209856
0.228444
0.213183
0.213752
0.213655
0.210596
0.205868
0.199964
0.198071
0.200428
0.207779
0.217293
0.232018
0.241789
0.252529
0.263262
0.286583
0.266005
0.266761
0.266549
0.26674
0.264366
0.26092
0.254529
0.24989
0.240706
0.232542
0.214428
0.208514
0.20136
0.199553
0.198697
0.197708
0.196625
0.204039
0.196569
0.196726
0.196505
0.196779
0.19605
0.196287
0.195468
0.197295
0.19722
0.196589
0.196528
0.195634
0.196345
0.195862
0.195749
0.196256
0.196633
0.197917
0.197406
0.199955
0.202105
0.204113
0.205826
0.21004
0.212885
0.214898
0.216492
0.217068
0.222574
1.12492
0.435159
0.252293
0.27921
0.402776
0.569849
0.798716
1.01416
1.12938
1.16111
1.06851
1.06738
1.06271
0.512889
0.423152
0.689077
0.896028
0.798521
0.491016
0.386252
0.314688
0.24549
0.20986
0.204331
0.213586
0.227424
0.224485
0.220092
0.214118
0.206444
0.201289
0.199789
0.200741
0.204045
0.205957
0.20749
0.209871
0.210029
0.208606
0.232408
0.206705
0.20437
0.201818
0.198074
0.198969
0.203561
0.212327
0.221353
0.23467
0.244884
0.253711
0.262229
0.266167
0.264576
0.265675
0.264952
0.264734
0.261859
0.25662
0.25102
0.246943
0.238093
0.230233
0.211248
0.205723
0.204008
0.199017
0.198242
0.203834
0.196329
0.195608
0.196421
0.196481
0.196403
0.196693
0.195729
0.196134
0.195391
0.197061
0.196874
0.196451
0.203988
0.195467
0.205427
0.195844
0.19579
0.196312
0.196716
0.198032
0.197508
0.200079
0.202254
0.204354
0.206343
0.210249
0.21306
0.215078
0.216682
0.217947
0.222799
1.13318
0.498098
0.240054
0.330853
0.508468
0.715273
0.956779
0.803645
1.15237
1.16446
1.17114
1.15462
1.14375
0.75868
0.686574
0.824563
0.746869
0.767208
0.620648
0.402669
0.293035
0.226962
0.220672
0.220386
0.216227
0.225479
0.222531
0.220294
0.215955
0.207769
0.202549
0.200656
0.200251
0.203381
0.205626
0.207544
0.208624
0.20783
0.205621
0.203457
0.202279
0.200453
0.216479
0.197914
0.200984
0.208043
0.218955
0.225199
0.236655
0.269678
0.253786
0.260786
0.283817
0.263045
0.263898
0.262747
0.262188
0.258419
0.251862
0.247121
0.243794
0.235123
0.227553
0.209897
0.204885
0.203122
0.198414
0.197662
0.197017
0.196008
0.195281
0.196267
0.196296
0.196304
0.196602
0.195446
0.195963
0.195303
0.196792
0.19661
0.196295
0.204097
0.197037
0.196197
0.195846
0.195843
0.196384
0.196822
0.198163
0.197638
0.200234
0.202438
0.204621
0.219939
0.2105
0.213275
0.215302
0.216916
0.218675
0.223067
1.1354
0.591294
0.342993
0.424646
0.69081
0.898697
0.741288
0.843635
1.02768
1.16203
1.17316
1.15008
1.0282
0.944304
0.882402
0.93652
0.836802
0.684531
0.513668
0.366609
0.262866
0.21224
0.202081
0.207972
0.217357
0.250032
0.245064
0.221111
0.242595
0.211361
0.205319
0.20262
0.201353
0.202635
0.203841
0.204911
0.205994
0.20445
0.202881
0.202119
0.217999
0.199728
0.198968
0.198678
0.203179
0.212408
0.25295
0.22905
0.23689
0.243549
0.251317
0.25669
0.281478
0.26063
0.261321
0.25954
0.258512
0.273966
0.247741
0.243022
0.240432
0.231855
0.215469
0.2105
0.208621
0.199211
0.19777
0.197035
0.19656
0.195691
0.194995
0.196127
0.196162
0.196215
0.196513
0.197118
0.195783
0.195201
0.196505
0.204047
0.196123
0.195904
0.19685
0.1961
0.195868
0.19591
0.196476
0.202958
0.198313
0.197783
0.20042
0.202656
0.204917
0.207305
0.210794
0.213532
0.215571
0.217195
0.219313
0.223374
1.08987
0.783374
0.506917
0.696238
0.908877
1.06152
0.845441
1.13663
1.15807
1.15715
1.09523
1.01508
1.0617
0.869712
0.928798
0.903632
0.750592
0.580712
0.440825
0.325362
0.240891
0.218993
0.203399
0.224085
0.220888
0.227628
0.223684
0.221941
0.220026
0.213677
0.233206
0.20624
0.204064
0.203996
0.203781
0.222144
0.203503
0.202931
0.202321
0.20213
0.200733
0.199458
0.1995
0.200278
0.205259
0.21327
0.222757
0.226643
0.236067
0.241237
0.248634
0.252461
0.277705
0.256269
0.256927
0.255053
0.25377
0.249089
0.243378
0.237534
0.235154
0.238295
0.223578
0.206173
0.200096
0.198368
0.197125
0.19641
0.196146
0.205251
0.205801
0.196015
0.196064
0.196137
0.205772
0.196954
0.19752
0.195071
0.196215
0.204215
0.195937
0.195597
0.196668
0.196035
0.205363
0.195994
0.196588
0.197111
0.198481
0.197963
0.200624
0.202905
0.205243
0.207801
0.211125
0.21383
0.215883
0.217517
0.219894
0.223719
1.13668
1.00893
0.704175
0.738483
1.06294
1.13232
1.13883
1.15524
1.15786
1.14323
1.06478
0.924927
0.709461
0.754373
0.737918
0.75465
0.604096
0.461666
0.410253
0.283463
0.226833
0.203064
0.201431
0.209377
0.247287
0.254899
0.225374
0.22358
0.247286
0.216657
0.212656
0.211266
0.210496
0.20979
0.207365
0.205825
0.226926
0.204135
0.204494
0.225328
0.201725
0.200513
0.201432
0.202683
0.207516
0.214157
0.221436
0.226511
0.235435
0.23937
0.245315
0.248471
0.251119
0.25133
0.272553
0.250076
0.248872
0.244764
0.239038
0.23309
0.242686
0.226787
0.208363
0.20895
0.20227
0.197566
0.196506
0.195818
0.20462
0.194892
0.196338
0.195927
0.195995
0.196075
0.196332
0.196814
0.197417
0.194891
0.20469
0.195803
0.205109
0.205444
0.196509
0.195996
0.205424
0.196093
0.196722
0.197294
0.198666
0.198201
0.200855
0.203183
0.205634
0.208306
0.211491
0.214169
0.21624
0.217889
0.220437
0.224099
1.13816
1.1041
1.0431
0.870877
1.12361
1.15269
1.05671
1.15785
1.08359
1.00217
1.09738
0.815355
0.443621
0.353912
0.563847
0.585117
0.497658
0.37252
0.291767
0.249384
0.220937
0.201122
0.20124
0.20857
0.219602
0.251631
0.225688
0.223644
0.222901
0.219142
0.216766
0.217074
0.223
0.24946
0.241844
0.213259
0.210614
0.209306
0.208247
0.206773
0.203956
0.203006
0.204375
0.205893
0.211542
0.216255
0.221908
0.226883
0.235223
0.237708
0.242633
0.24379
0.246107
0.246905
0.247301
0.245659
0.265895
0.259238
0.233521
0.22852
0.225965
0.210613
0.204712
0.19875
0.203006
0.20334
0.195937
0.195293
0.205872
0.196601
0.196164
0.195884
0.195967
0.19604
0.196249
0.196703
0.206964
0.205433
0.19556
0.195489
0.195383
0.196806
0.196381
0.195985
0.195993
0.196141
0.196879
0.1975
0.19886
0.198482
0.201117
0.203503
0.20605
0.20881
0.211899
0.214548
0.21664
0.218304
0.220961
0.224516
1.139
1.06608
0.987814
0.995816
1.14214
1.15068
1.14595
1.08311
1.04461
0.986215
0.849376
0.641938
0.258478
0.238997
0.37768
0.454441
0.449289
0.32656
0.252998
0.220547
0.204567
0.200197
0.202614
0.208608
0.216954
0.226594
0.226639
0.224137
0.22484
0.222669
0.221056
0.222444
0.224954
0.22482
0.222135
0.249519
0.219964
0.246612
0.215213
0.239701
0.209416
0.207361
0.208786
0.211105
0.215573
0.218825
0.222467
0.227003
0.257344
0.236057
0.239676
0.239976
0.240841
0.242609
0.264199
0.241167
0.257407
0.23464
0.229026
0.223958
0.212205
0.217041
0.201991
0.200921
0.197078
0.196018
0.195439
0.194849
0.196917
0.206261
0.196092
0.195891
0.195978
0.196044
0.196204
0.196611
0.19723
0.196229
0.195192
0.205935
0.19696
0.196571
0.196284
0.196008
0.19607
0.196295
0.197061
0.197726
0.199074
0.20648
0.201412
0.203857
0.206505
0.209322
0.212351
0.214974
0.217081
0.218761
0.221585
0.224973
1.13476
1.07675
1.05012
1.03461
1.14459
1.05485
1.12761
1.00288
0.944047
0.916285
0.784942
0.646834
0.305031
0.212143
0.308141
0.401062
0.388278
0.304274
0.224007
0.220894
0.201032
0.199713
0.218767
0.209822
0.216194
0.249958
0.253551
0.225036
0.228152
0.251687
0.226551
0.226456
0.227075
0.227186
0.225421
0.22689
0.224302
0.226254
0.246753
0.219164
0.215426
0.213302
0.214532
0.216815
0.220688
0.221288
0.223424
0.225938
0.230244
0.233882
0.258403
0.258146
0.258852
0.237189
0.237189
0.235418
0.233153
0.229665
0.224629
0.210625
0.206932
0.211704
0.198339
0.196988
0.196445
0.195538
0.206455
0.206925
0.196762
0.196404
0.196126
0.195945
0.196032
0.196079
0.196209
0.196539
0.197142
0.195896
0.196811
0.19692
0.196762
0.196409
0.196219
0.196055
0.196193
0.196475
0.197269
0.197984
0.199285
0.199275
0.201762
0.21537
0.207009
0.209848
0.212847
0.215444
0.217563
0.219255
0.222212
0.225468
1.13608
1.14114
1.14655
1.12831
1.09339
0.977637
0.998682
0.874685
0.826483
0.728599
0.65996
0.523072
0.300509
0.22616
0.301724
0.380365
0.35882
0.285073
0.222125
0.203944
0.199449
0.201648
0.22681
0.211172
0.215913
0.24542
0.2258
0.223876
0.256807
0.229998
0.254954
0.230417
0.232137
0.232831
0.229828
0.229115
0.229494
0.229905
0.225506
0.224187
0.249011
0.245637
0.220275
0.222446
0.251403
0.222564
0.222629
0.248695
0.224578
0.23032
0.252778
0.231514
0.231938
0.232553
0.24933
0.245098
0.228135
0.236591
0.211439
0.206908
0.203239
0.205324
0.20454
0.19636
0.204578
0.195243
0.207317
0.196826
0.19677
0.196476
0.196213
0.19605
0.196129
0.196152
0.196247
0.196508
0.197034
0.195595
0.206302
0.196778
0.196612
0.205731
0.196197
0.196134
0.196345
0.196688
0.197512
0.198275
0.19948
0.199852
0.211666
0.204723
0.20755
0.210402
0.213374
0.215955
0.218089
0.219869
0.222852
0.226002
1.12845
1.09964
1.13325
0.925832
0.653049
0.72548
0.681006
0.592737
0.49116
0.29026
0.432075
0.288647
0.290384
0.208732
0.262655
0.35601
0.318276
0.258468
0.220656
0.217714
0.198221
0.216823
0.212363
0.211766
0.214824
0.220411
0.222869
0.221613
0.226129
0.227118
0.228963
0.230216
0.233427
0.259177
0.233348
0.232725
0.232484
0.233423
0.254573
0.226375
0.225247
0.223595
0.224524
0.226013
0.252913
0.222075
0.219691
0.21819
0.22011
0.220582
0.22014
0.21894
0.221477
0.242124
0.241224
0.225762
0.223296
0.220157
0.208251
0.202128
0.198499
0.196675
0.202643
0.195892
0.195644
0.197589
0.197339
0.197009
0.196909
0.19662
0.196373
0.19622
0.196282
0.196274
0.196323
0.196505
0.196918
0.195318
0.196626
0.196696
0.196522
0.196256
0.196219
0.205619
0.196461
0.203388
0.204164
0.198588
0.199678
0.200498
0.202725
0.205259
0.208126
0.211008
0.213932
0.216505
0.218663
0.220509
0.223511
0.226577
0.977624
0.988847
0.993658
0.575854
0.216069
0.337143
0.420069
0.35381
0.272711
0.312889
0.267003
0.270665
0.283389
0.214559
0.240088
0.321771
0.277897
0.232714
0.207324
0.215679
0.199108
0.203623
0.224583
0.209423
0.213843
0.218775
0.245687
0.219311
0.221482
0.223868
0.226985
0.227411
0.253956
0.232321
0.256783
0.234877
0.234981
0.262617
0.256457
0.227714
0.226945
0.226892
0.227809
0.22756
0.22528
0.21942
0.216414
0.213758
0.213758
0.234958
0.212689
0.214282
0.213799
0.213535
0.212415
0.218531
0.210143
0.20807
0.203866
0.204948
0.200916
0.196017
0.196356
0.195594
0.197981
0.19784
0.197674
0.197357
0.207049
0.196854
0.196551
0.196386
0.196418
0.19644
0.196446
0.19654
0.196786
0.194988
0.206359
0.196672
0.196477
0.196237
0.19628
0.196387
0.196688
0.197211
0.198096
0.198923
0.199873
0.201238
0.213736
0.20585
0.208724
0.211639
0.214517
0.217104
0.21928
0.221171
0.224191
0.227186
0.311639
0.474355
0.569224
0.280364
0.206067
0.259283
0.267142
0.234964
0.239893
0.251172
0.250874
0.232031
0.25047
0.24821
0.274322
0.263936
0.248079
0.222355
0.202958
0.196738
0.209758
0.212874
0.204484
0.222926
0.231745
0.241264
0.240925
0.21533
0.216917
0.219722
0.248309
0.249941
0.22436
0.225387
0.227251
0.259002
0.258828
0.234373
0.230751
0.253137
0.228959
0.229706
0.254687
0.225549
0.245802
0.215574
0.232306
0.208675
0.208816
0.218662
0.209167
0.209508
0.209271
0.209272
0.208179
0.207522
0.204819
0.207378
0.206138
0.199594
0.203319
0.202852
0.196029
0.198021
0.198317
0.198365
0.198253
0.197907
0.19755
0.197192
0.196908
0.196731
0.196728
0.196641
0.203877
0.196636
0.196547
0.204852
0.196567
0.206655
0.196477
0.196293
0.196408
0.196623
0.197015
0.204144
0.198508
0.199363
0.200028
0.211543
0.204203
0.206595
0.209495
0.212428
0.215256
0.217886
0.220062
0.222
0.22503
0.227961
0.184945
0.307946
0.332797
0.313999
0.247879
0.245334
0.215116
0.204455
0.211207
0.214904
0.215356
0.215928
0.212489
0.231445
0.225504
0.241435
0.22332
0.218357
0.214161
0.195311
0.196397
0.198033
0.200882
0.205249
0.230707
0.233571
0.233706
0.211533
0.232436
0.213116
0.216161
0.216532
0.217296
0.219193
0.220755
0.223083
0.223257
0.225625
0.252488
0.228727
0.253943
0.256711
0.254272
0.221334
0.21586
0.210724
0.204442
0.20174
0.202506
0.202929
0.202428
0.208265
0.207804
0.207695
0.200443
0.199729
0.205923
0.204698
0.197137
0.203501
0.2055
0.206389
0.198754
0.19857
0.199009
0.199197
0.199069
0.198655
0.198205
0.197733
0.197395
0.197192
0.197153
0.197032
0.196922
0.196832
0.197113
0.195488
0.196673
0.196803
0.19658
0.196437
0.196642
0.196912
0.197455
0.198099
0.199051
0.19996
0.200961
0.202843
0.205264
0.20761
0.210449
0.213392
0.216188
0.21887
0.22104
0.223018
0.226055
0.228922
0.169458
0.219112
0.253565
0.260048
0.239564
0.216345
0.196214
0.193883
0.196485
0.197328
0.212069
0.202015
0.207914
0.209284
0.21754
0.217187
0.206978
0.200456
0.213777
0.19571
0.211674
0.196653
0.199007
0.203275
0.223344
0.207878
0.207446
0.206274
0.223688
0.207454
0.231902
0.233564
0.212364
0.215182
0.239647
0.215074
0.216328
0.22011
0.222937
0.24968
0.226248
0.224859
0.221771
0.241185
0.211122
0.203651
0.201591
0.198812
0.197442
0.196782
0.197519
0.202623
0.197664
0.203502
0.197283
0.202446
0.202611
0.203745
0.196485
0.19615
0.196522
0.198177
0.199597
0.199515
0.208748
0.200207
0.199992
0.199484
0.206224
0.205362
0.197954
0.197724
0.197638
0.197479
0.197345
0.197085
0.197533
0.196241
0.196889
0.197008
0.196776
0.196672
0.204329
0.197349
0.197957
0.198685
0.199657
0.200643
0.201856
0.214282
0.206341
0.20871
0.211464
0.214453
0.217204
0.219947
0.222121
0.224094
0.227147
0.229957
0.166242
0.187883
0.210697
0.22639
0.216719
0.200573
0.191129
0.190028
0.189305
0.189201
0.191526
0.194583
0.198608
0.20263
0.21039
0.203229
0.198588
0.217309
0.194498
0.194542
0.195722
0.212414
0.2142
0.215604
0.218226
0.203726
0.203105
0.201431
0.200543
0.201358
0.219797
0.203033
0.204921
0.228147
0.207173
0.208205
0.231576
0.214968
0.21641
0.218738
0.221063
0.24311
0.214736
0.209555
0.214146
0.209353
0.204492
0.194779
0.195016
0.195149
0.195838
0.203381
0.203511
0.196616
0.196308
0.196252
0.196392
0.196398
0.196474
0.199221
0.20007
0.211731
0.200824
0.209722
0.201239
0.201302
0.200958
0.200362
0.199731
0.19908
0.20555
0.198316
0.198194
0.198
0.197819
0.197495
0.197914
0.196874
0.197232
0.205903
0.197093
0.19702
0.197354
0.197864
0.198542
0.199328
0.200316
0.201406
0.202837
0.204784
0.207504
0.209863
0.212683
0.215571
0.218309
0.221103
0.2233
0.225238
0.228304
0.231072
0.165433
0.173844
0.190424
0.204654
0.20274
0.194757
0.190998
0.189598
0.187167
0.18622
0.187813
0.209532
0.194522
0.210808
0.19891
0.198294
0.196696
0.196099
0.194023
0.193892
0.193855
0.21519
0.194355
0.196514
0.198316
0.199984
0.200443
0.212906
0.196096
0.210903
0.19673
0.196804
0.211493
0.2001
0.216058
0.203459
0.20651
0.210459
0.211261
0.213673
0.216356
0.211569
0.206521
0.212793
0.20068
0.196308
0.196533
0.195912
0.196404
0.19677
0.207006
0.207246
0.207311
0.196195
0.20808
0.196075
0.199002
0.210553
0.199817
0.200479
0.201489
0.201448
0.202316
0.202284
0.202528
0.202433
0.201952
0.201276
0.200586
0.199875
0.199308
0.198995
0.19882
0.198573
0.198373
0.197995
0.205427
0.197565
0.197659
0.197704
0.197493
0.197446
0.204954
0.198459
0.199196
0.200055
0.201084
0.202254
0.203933
0.205998
0.208746
0.211047
0.213966
0.216824
0.219493
0.222334
0.224554
0.2265
0.229524
0.232265
0.165407
0.168701
0.177722
0.188463
0.189927
0.186677
0.18711
0.189386
0.187892
0.185273
0.186207
0.190738
0.193649
0.195713
0.196912
0.199068
0.198579
0.214058
0.195304
0.193806
0.192149
0.190887
0.191467
0.193221
0.195132
0.214201
0.19642
0.1933
0.19232
0.192082
0.192498
0.193341
0.194237
0.19547
0.196911
0.199714
0.202597
0.219687
0.206904
0.208469
0.212441
0.20466
0.213046
0.199484
0.196125
0.196397
0.206497
0.196177
0.196842
0.19732
0.197854
0.198344
0.198645
0.199309
0.199015
0.199406
0.20008
0.200672
0.201221
0.202095
0.203118
0.203277
0.203872
0.203812
0.213618
0.203615
0.203106
0.202349
0.201551
0.200732
0.200102
0.199719
0.199485
0.199227
0.198985
0.198605
0.19889
0.198264
0.198233
0.198257
0.198056
0.198027
0.198551
0.199153
0.199931
0.200823
0.201991
0.212931
0.205062
0.20726
0.210088
0.21244
0.215359
0.218184
0.220951
0.223651
0.225887
0.227853
0.230832
0.233522
0.165698
0.167731
0.171854
0.177977
0.180163
0.180507
0.183535
0.188315
0.189909
0.18712
0.185041
0.189777
0.192597
0.217783
0.197533
0.21486
0.21338
0.197043
0.213289
0.192815
0.215271
0.189453
0.189595
0.19105
0.215896
0.216384
0.194042
0.204299
0.190273
0.189898
0.190719
0.193041
0.201362
0.194002
0.19512
0.197462
0.211948
0.202131
0.203409
0.218503
0.207003
0.212192
0.19933
0.196506
0.196596
0.196744
0.197025
0.197283
0.197967
0.198475
0.208415
0.199626
0.199907
0.210309
0.211353
0.200913
0.201747
0.202494
0.212763
0.203937
0.20479
0.205034
0.205453
0.205329
0.205299
0.205008
0.20441
0.203547
0.20265
0.201744
0.209793
0.200612
0.20028
0.199928
0.199671
0.199304
0.199504
0.199026
0.198914
0.198935
0.206082
0.206032
0.199329
0.199942
0.200756
0.201738
0.202963
0.204397
0.206402
0.208592
0.211501
0.213933
0.216814
0.219621
0.22243
0.225052
0.227298
0.229386
0.232259
0.234886
0.166152
0.168328
0.171163
0.174652
0.177566
0.181324
0.186356
0.190859
0.193211
0.191296
0.18686
0.183092
0.188747
0.192001
0.194919
0.197724
0.19622
0.19389
0.192237
0.190518
0.189235
0.18801
0.205739
0.189152
0.190697
0.204193
0.193886
0.196063
0.190431
0.189345
0.187985
0.188576
0.189689
0.191572
0.194594
0.19645
0.197295
0.20013
0.200656
0.200834
0.201753
0.196857
0.196692
0.19629
0.197501
0.205573
0.198515
0.198836
0.199504
0.200067
0.209052
0.201363
0.201683
0.201417
0.202254
0.202841
0.203751
0.204516
0.205067
0.217234
0.20652
0.206861
0.207235
0.207083
0.207141
0.206743
0.206023
0.205061
0.204028
0.202984
0.202136
0.201587
0.201204
0.200787
0.20043
0.200098
0.200206
0.199821
0.199682
0.199707
0.199573
0.20705
0.200206
0.200849
0.201674
0.20279
0.204092
0.205676
0.207855
0.210028
0.212977
0.2155
0.218329
0.221139
0.223948
0.22653
0.228802
0.230954
0.233753
0.236388
0.166764
0.169744
0.173432
0.177029
0.181854
0.189071
0.195886
0.19922
0.199415
0.197163
0.191594
0.187325
0.185135
0.188068
0.191236
0.19306
0.215946
0.212053
0.190293
0.208257
0.188162
0.187383
0.187499
0.188209
0.18921
0.192255
0.192623
0.187076
0.188714
0.184485
0.183911
0.185209
0.188727
0.187158
0.190999
0.194484
0.196002
0.205894
0.196222
0.2071
0.197889
0.196667
0.196807
0.20501
0.199206
0.20002
0.209279
0.200661
0.210544
0.201842
0.212014
0.203282
0.203664
0.203634
0.214816
0.204967
0.205864
0.206641
0.207292
0.207974
0.208541
0.208968
0.209387
0.223927
0.209244
0.208746
0.20792
0.206771
0.205573
0.204419
0.203524
0.202793
0.202282
0.201736
0.201354
0.200986
0.200956
0.200679
0.200517
0.200547
0.200495
0.200536
0.209134
0.201808
0.202725
0.203903
0.205401
0.207103
0.209356
0.211612
0.214526
0.217143
0.219944
0.22275
0.225539
0.228086
0.230382
0.232596
0.235321
0.237963
0.167632
0.172092
0.177827
0.183932
0.192568
0.204244
0.212964
0.213418
0.20934
0.204258
0.198019
0.191632
0.187067
0.186509
0.18895
0.206358
0.190455
0.19043
0.205498
0.189878
0.187893
0.186613
0.186864
0.189321
0.186731
0.185227
0.184537
0.184559
0.187973
0.18355
0.182534
0.182827
0.183529
0.184841
0.188867
0.194338
0.193405
0.194932
0.194708
0.204493
0.197335
0.204075
0.198577
0.20876
0.21153
0.202489
0.202919
0.203124
0.2036
0.21522
0.20483
0.205487
0.205914
0.206018
0.206634
0.207314
0.208272
0.209139
0.209846
0.210602
0.210994
0.211386
0.211935
0.211694
0.211699
0.21105
0.210051
0.208777
0.207397
0.206056
0.20499
0.204187
0.203575
0.202882
0.202362
0.202028
0.201829
0.201567
0.201415
0.201481
0.201507
0.201622
0.202193
0.202919
0.203859
0.205201
0.206787
0.208699
0.210987
0.213261
0.21622
0.218825
0.221629
0.224426
0.227195
0.229737
0.232035
0.234305
0.236974
0.239606
0.168946
0.176253
0.186372
0.197707
0.211498
0.228225
0.237745
0.233136
0.222243
0.212634
0.204698
0.197502
0.19137
0.188891
0.189368
0.191206
0.191223
0.191292
0.189127
0.188554
0.186959
0.185985
0.184769
0.183687
0.182518
0.182759
0.182653
0.184208
0.188335
0.18317
0.186675
0.181245
0.181656
0.183119
0.18686
0.191613
0.191567
0.1997
0.193939
0.195855
0.198245
0.199658
0.201257
0.203119
0.204846
0.206126
0.20664
0.221257
0.206862
0.207117
0.207918
0.20846
0.208833
0.208993
0.209588
0.210241
0.211289
0.212235
0.230811
0.2137
0.213878
0.233282
0.214802
0.214635
0.214484
0.213657
0.212469
0.210974
0.209429
0.207896
0.206684
0.205773
0.20499
0.204211
0.203594
0.203134
0.202856
0.202618
0.202423
0.202497
0.202568
0.202761
0.203401
0.20414
0.205203
0.206658
0.20833
0.210369
0.212777
0.214989
0.217985
0.220608
0.223414
0.226193
0.228923
0.231461
0.233784
0.236084
0.23869
0.241338
0.171189
0.183753
0.202819
0.221745
0.24258
0.263974
0.2708
0.257765
0.237998
0.222123
0.211442
0.203554
0.197033
0.19344
0.192783
0.193208
0.193087
0.193035
0.191629
0.19188
0.190406
0.189098
0.187861
0.186548
0.185969
0.185723
0.189928
0.183972
0.189797
0.188979
0.18265
0.181916
0.180957
0.182043
0.185543
0.187983
0.190556
0.198177
0.194548
0.197489
0.200759
0.202794
0.205339
0.207837
0.227537
0.210882
0.211358
0.210756
0.211065
0.211216
0.211866
0.212278
0.212577
0.212712
0.213241
0.213825
0.214945
0.215964
0.216454
0.217244
0.217215
0.217284
0.218091
0.217885
0.217513
0.216468
0.215101
0.213454
0.211731
0.210008
0.208491
0.20756
0.206645
0.205703
0.204996
0.204487
0.204037
0.203765
0.203588
0.203702
0.203812
0.204079
0.204702
0.205528
0.206752
0.208222
0.210061
0.212208
0.214669
0.216888
0.219806
0.222477
0.225258
0.228034
0.230745
0.233267
0.235604
0.237956
0.240461
0.243175
0.17569
0.200333
0.234957
0.265836
0.292903
0.314651
0.313639
0.288116
0.257007
0.23344
0.218744
0.209547
0.203027
0.199241
0.197771
0.197754
0.197427
0.19718
0.19584
0.195577
0.194045
0.192663
0.192052
0.191158
0.191091
0.191718
0.189565
0.195545
0.188566
0.18759
0.186123
0.185098
0.182482
0.181885
0.185508
0.188035
0.190812
0.193789
0.196881
0.200327
0.203896
0.207228
0.210932
0.213835
0.215467
0.216687
0.216981
0.216255
0.216205
0.216079
0.216636
0.216923
0.217101
0.217187
0.217594
0.218006
0.219231
0.220264
0.220726
0.22128
0.220971
0.221107
0.221777
0.221502
0.220885
0.219623
0.218011
0.216125
0.214225
0.212354
0.227231
0.209511
0.208451
0.207448
0.206585
0.20598
0.205473
0.205124
0.20491
0.204988
0.20515
0.205468
0.20624
0.207143
0.208366
0.209988
0.211867
0.214182
0.216616
0.218884
0.22172
0.224452
0.227184
0.229956
0.232631
0.235164
0.23752
0.239892
0.242445
0.245089
0.183655
0.236907
0.301177
0.344273
0.369075
0.381602
0.367214
0.326206
0.281025
0.247572
0.227404
0.216234
0.209341
0.205515
0.203937
0.203479
0.202783
0.202013
0.200393
0.199794
0.198558
0.197154
0.198538
0.19855
0.20464
0.201144
0.199645
0.196682
0.203009
0.193537
0.190717
0.186925
0.18586
0.183735
0.186875
0.189589
0.192703
0.196367
0.200396
0.204445
0.229067
0.213157
0.217396
0.220705
0.222478
0.223262
0.223344
0.222527
0.222226
0.221903
0.222199
0.222332
0.222405
0.222399
0.222646
0.249917
0.22413
0.225135
0.225494
0.225791
0.225546
0.225451
0.22581
0.225396
0.224515
0.222991
0.221136
0.219053
0.216967
0.214846
0.212984
0.211697
0.210472
0.209326
0.208416
0.20768
0.207027
0.206674
0.206497
0.206559
0.206726
0.207145
0.207969
0.208867
0.210197
0.21189
0.213876
0.216261
0.218724
0.22095
0.223721
0.226499
0.229178
0.23198
0.234609
0.237136
0.239521
0.241896
0.244511
0.247085
0.21742
0.330401
0.433818
0.471751
0.473186
0.462122
0.43082
0.374248
0.312579
0.26682
0.238876
0.224667
0.21691
0.212915
0.211041
0.210113
0.208941
0.207654
0.205868
0.205302
0.204825
0.205419
0.207914
0.209934
0.211766
0.213881
0.211904
0.207417
0.203903
0.200688
0.196051
0.19862
0.189176
0.188105
0.190153
0.193018
0.208274
0.201261
0.206247
0.211221
0.216286
0.2202
0.256895
0.228618
0.230201
0.23047
0.230291
0.229431
0.228896
0.228343
0.228498
0.228508
0.228444
0.228332
0.228417
0.228201
0.229692
0.230623
0.230803
0.23074
0.230556
0.230053
0.230217
0.229629
0.228454
0.226644
0.224529
0.222188
0.219908
0.217632
0.215645
0.214038
0.212722
0.211429
0.21038
0.209598
0.208859
0.208406
0.208201
0.20829
0.2085
0.208957
0.209842
0.21084
0.212193
0.213929
0.216057
0.218413
0.220936
0.223132
0.225822
0.228643
0.231257
0.23407
0.236661
0.23921
0.241583
0.244015
0.24664
0.249177
0.857788
0.800914
0.758243
0.693815
0.626101
0.567003
0.508452
0.440766
0.365484
0.305897
0.266642
0.245813
0.235448
0.230285
0.227365
0.225151
0.222686
0.220359
0.218634
0.219218
0.221663
0.226212
0.231527
0.235666
0.237628
0.237001
0.232605
0.226333
0.220375
0.213971
0.207476
0.201926
0.198501
0.19806
0.218851
0.205693
0.209648
0.215363
0.223473
0.230007
0.235415
0.238654
0.243059
0.247893
0.2485
0.247416
0.245167
0.24271
0.241253
0.240048
0.240133
0.239972
0.239745
0.239495
0.239283
0.239343
0.240201
0.240813
0.240633
0.24053
0.239747
0.238234
0.238148
0.237242
0.235496
0.233165
0.230604
0.227854
0.225213
0.222546
0.220364
0.218331
0.216743
0.215259
0.214061
0.213082
0.212256
0.211768
0.211518
0.211608
0.211857
0.212411
0.213364
0.214395
0.215789
0.21761
0.219761
0.222283
0.224687
0.226902
0.229555
0.232293
0.23477
0.237629
0.240156
0.242675
0.245111
0.247574
0.250229
0.252724
1.11308
1.05737
0.985271
0.897228
0.816604
0.751345
0.688292
0.603441
0.507513
0.419118
0.356835
0.317064
0.294999
0.283031
0.274688
0.267638
0.261262
0.256988
0.256884
0.261969
0.270497
0.279884
0.285847
0.286003
0.280798
0.271979
0.260977
0.249904
0.24046
0.23244
0.226305
0.222124
0.220043
0.22068
0.228331
0.233412
0.239539
0.24604
0.254722
0.260982
0.264244
0.268743
0.272499
0.274942
0.274099
0.271065
0.268562
0.2677
0.265193
0.262637
0.26038
0.25868
0.257505
0.256761
0.256114
0.256022
0.256277
0.256391
0.255751
0.255082
0.253672
0.252077
0.250776
0.248908
0.246412
0.24335
0.240078
0.236661
0.233432
0.230278
0.227672
0.225136
0.223181
0.221458
0.220029
0.218842
0.217887
0.217306
0.216967
0.216997
0.217298
0.217927
0.218979
0.220043
0.221387
0.223237
0.22552
0.227989
0.230363
0.232609
0.235242
0.237778
0.240159
0.242943
0.245346
0.247889
0.250382
0.252909
0.25556
0.25802
1.16355
1.1397
1.09965
1.04168
0.976457
0.916511
0.863756
0.807027
0.730846
0.641576
0.572142
0.518537
0.473815
0.437488
0.406433
0.381399
0.363876
0.35603
0.358015
0.365888
0.372735
0.372943
0.364366
0.348743
0.329473
0.309785
0.29199
0.27731
0.266193
0.25843
0.2541
0.253329
0.256129
0.260845
0.270712
0.278041
0.285703
0.293584
0.300533
0.304802
0.306142
0.308804
0.310262
0.309399
0.306326
0.302318
0.299364
0.295987
0.291371
0.288052
0.287502
0.285412
0.282823
0.280624
0.277942
0.276552
0.275532
0.274674
0.273272
0.271725
0.269676
0.267647
0.265391
0.262584
0.259151
0.25527
0.251203
0.247078
0.243208
0.239532
0.236403
0.233381
0.230987
0.229082
0.227385
0.225998
0.224922
0.22419
0.223758
0.223661
0.224019
0.224669
0.22576
0.226835
0.228044
0.22995
0.232231
0.234567
0.236814
0.239071
0.241606
0.243975
0.246112
0.248946
0.251253
0.253689
0.256324
0.258851
0.261511
0.264004
1.1678
1.15821
1.14059
1.11377
1.07936
1.04132
1.00234
0.959537
0.911267
0.863457