/*--------------------------------*- C++ -*----------------------------------*\
  =========                 |
  \\      /  F ield         | OpenFOAM: The Open Source CFD Toolbox
   \\    /   O peration     | Website:  https://openfoam.org
    \\  /    A nd           | Version:  6
     \\/     M anipulation  |
\*---------------------------------------------------------------------------*/
FoamFile
{
    version     2.0;
    format      ascii;
    class       volScalarField;
    location    "0.1";
    object      S-CH2;
}
// * * * * * * * * * * * * * * * * * * * * * * * * * * * * * * * * * * * * * //

dimensions      [0 0 0 0 0 0 0];

internalField   nonuniform List<scalar> 
8000
(
4.39493e-14
4.03086e-09
5.87514e-08
1.97865e-07
2.20285e-07
2.08752e-07
1.1558e-07
3.87658e-08
7.35173e-09
4.20243e-10
4.63057e-12
1.4609e-15
3.86285e-15
8.35861e-10
1.32326e-10
1.32888e-12
2.85917e-09
1.36377e-07
4.89513e-08
5.73229e-09
6.75634e-09
2.64659e-08
1.21034e-07
2.85727e-07
2.0795e-07
1.47918e-07
1.32979e-07
1.22796e-07
1.17079e-07
2.6627e-07
1.25401e-07
1.47282e-07
1.61126e-07
1.2428e-07
9.61578e-08
7.94561e-08
7.24799e-08
7.76695e-08
1.10253e-07
1.41288e-07
9.91995e-08
6.95887e-08
6.09891e-08
6.52644e-08
7.32758e-08
6.92034e-08
5.83569e-08
4.72732e-08
4.31608e-08
1.45132e-07
2.54316e-09
1.00502e-08
1.07652e-08
9.96628e-09
7.95215e-09
5.56892e-09
3.89281e-09
3.09722e-09
2.73649e-09
2.31067e-09
1.79953e-09
1.57545e-09
1.87525e-09
2.29645e-13
2.45217e-10
5.27224e-11
9.87314e-10
6.86769e-10
7.41507e-10
7.70267e-10
5.54959e-08
8.5048e-10
8.46145e-10
4.10957e-09
4.18055e-09
8.18108e-10
8.18954e-10
8.01205e-10
7.682e-10
7.57729e-10
7.96338e-10
8.05777e-10
8.45114e-10
3.93411e-09
3.4442e-09
2.98466e-09
2.79596e-09
2.61724e-09
1.66093e-07
2.66369e-09
2.57725e-09
2.32243e-09
2.03615e-09
1.84104e-09
1.35299e-09
1.09223e-09
9.58124e-10
8.59277e-10
8.31544e-10
5.82289e-10
1.10255e-14
4.41413e-09
6.54636e-08
2.03254e-07
2.27009e-07
2.07502e-07
1.08055e-07
3.6487e-08
6.38687e-09
2.90999e-10
1.46393e-12
1.91818e-15
1.52612e-14
2.07827e-08
8.61148e-09
2.57971e-10
4.59583e-10
2.1713e-08
2.32299e-08
2.82762e-08
1.67522e-08
3.7814e-08
1.36682e-07
2.90329e-07
2.02395e-07
1.45152e-07
1.28087e-07
1.22673e-07
1.17183e-07
1.37253e-07
1.03932e-07
1.43216e-07
1.52461e-07
1.24948e-07
1.06367e-07
9.39974e-08
8.68925e-08
9.02206e-08
1.25717e-07
3.1311e-07
1.23978e-07
7.66774e-08
6.4776e-08
6.78175e-08
7.38842e-08
6.8625e-08
5.70152e-08
4.6534e-08
4.64447e-08
2.19662e-08
1.60465e-08
1.26573e-08
1.05154e-08
9.27022e-09
7.46906e-09
5.34786e-09
3.86892e-09
3.14146e-09
2.76449e-09
2.25361e-09
1.78596e-09
1.60049e-09
1.86408e-09
1.10654e-11
6.99851e-11
5.25499e-11
9.88127e-10
6.892e-10
7.43107e-10
7.73181e-10
7.96262e-10
8.52424e-10
8.46036e-10
4.08666e-09
4.1623e-09
8.18298e-10
8.20325e-10
8.02174e-10
7.69804e-10
7.56736e-10
7.973e-10
8.0565e-10
8.4587e-10
3.92333e-09
3.44708e-09
2.97976e-09
2.7922e-09
2.61391e-09
2.58639e-09
2.66036e-09
2.57314e-09
2.31824e-09
2.03395e-09
1.84009e-09
1.35003e-09
1.09007e-09
9.56703e-10
8.58005e-10
8.31961e-10
5.81209e-10
1.5447e-16
6.52052e-09
1.24438e-11
1.33489e-07
1.89745e-07
1.48088e-07
7.23967e-08
3.13489e-12
1.06475e-41
1.40869e-10
2.35983e-12
1.78822e-15
3.82596e-14
3.83169e-08
7.5535e-08
7.87756e-10
6.7784e-12
2.10245e-10
4.25154e-08
6.26945e-07
5.042e-08
6.5901e-08
1.70409e-07
2.95687e-07
1.90709e-07
1.447e-07
1.25312e-07
1.22098e-07
1.13248e-07
1.0763e-07
1.14836e-07
1.38426e-07
1.45073e-07
1.2925e-07
1.28434e-07
1.28354e-07
1.18465e-07
1.15767e-07
1.19949e-07
1.24298e-07
9.61363e-08
7.66496e-08
6.96929e-08
7.14885e-08
7.43489e-08
6.70946e-08
5.39783e-08
4.62456e-08
4.72466e-08
2.82885e-08
1.65247e-08
1.13574e-08
8.08073e-09
7.6246e-09
6.59444e-09
4.99415e-09
3.80378e-09
3.17374e-09
2.75498e-09
2.24102e-09
1.76176e-09
1.65656e-09
1.831e-09
9.02028e-12
9.80314e-11
5.20779e-11
6.57782e-10
6.94817e-10
7.46176e-10
7.79219e-10
8.08027e-10
8.5571e-10
1.48033e-07
4.03472e-09
4.12256e-09
1.04322e-07
8.23226e-10
8.04258e-10
7.73235e-10
4.53928e-08
7.99427e-10
8.05325e-10
8.47626e-10
3.90179e-09
2.08297e-07
2.96879e-09
2.78541e-09
2.6067e-09
2.57935e-09
2.65365e-09
2.56419e-09
2.30908e-09
9.85515e-08
9.18393e-08
1.34352e-09
1.08538e-09
9.53585e-10
8.55212e-10
5.82711e-08
5.78822e-10
3.42071e-16
1.21479e-08
1.29128e-07
1.84172e-07
1.41971e-07
9.14403e-08
4.12637e-08
1.19825e-08
1.04475e-09
1.30295e-11
4.53828e-14
2.54055e-16
4.97859e-15
1.69975e-11
5.40636e-08
6.6311e-10
2.23552e-12
6.03916e-12
1.12323e-08
3.95703e-08
2.95231e-08
7.69443e-08
2.01644e-07
2.66527e-07
1.77424e-07
1.33774e-08
1.33177e-07
1.21958e-07
1.14132e-07
1.11344e-07
1.19317e-07
1.34005e-07
1.40509e-07
1.32951e-07
1.51937e-07
3.16463e-07
1.62031e-07
2.48031e-07
1.35037e-07
1.19077e-07
9.83955e-08
8.42081e-08
7.60996e-08
7.41492e-08
6.68552e-08
5.88448e-08
5.10234e-08
4.33252e-08
4.3713e-08
2.79767e-08
1.5887e-08
8.74042e-09
3.13203e-11
6.05002e-09
5.83552e-09
4.68433e-09
3.66415e-09
3.12877e-09
2.64908e-09
2.1002e-09
1.73837e-09
2.14275e-09
1.76063e-09
5.61577e-12
1.57551e-10
5.17998e-11
6.72615e-10
7.03845e-10
7.49767e-10
7.87492e-10
9.49538e-08
4.13944e-09
4.1538e-09
3.95023e-09
4.06224e-09
8.30538e-10
8.26915e-10
8.0729e-10
7.78337e-10
7.72092e-10
8.02787e-10
8.04709e-10
8.50444e-10
3.8746e-09
3.36328e-09
2.95158e-09
2.77554e-09
2.59595e-09
2.57173e-09
2.64407e-09
2.55076e-09
2.29542e-09
2.01083e-09
1.77113e-09
1.33343e-09
1.07836e-09
9.48882e-10
8.50981e-10
7.94938e-10
5.7505e-10
2.08469e-16
1.43439e-08
4.0408e-08
2.5373e-07
1.17697e-07
5.71534e-08
1.88111e-08
2.68464e-09
8.17482e-11
2.1582e-13
2.69574e-17
1.75314e-25
1.68483e-52
2.49393e-09
2.85482e-08
6.02651e-11
7.00167e-13
2.47221e-12
1.69172e-09
8.00973e-09
2.68665e-08
1.04334e-07
2.45002e-07
2.54895e-07
1.72342e-07
1.35782e-07
1.25165e-07
1.17531e-07
1.12188e-07
1.14984e-07
1.20327e-07
1.30706e-07
1.37244e-07
1.3074e-07
1.33926e-07
1.36941e-07
1.32806e-07
1.32252e-07
1.33019e-07
2.86652e-07
1.07304e-07
9.12612e-08
7.98003e-08
6.65505e-08
6.54874e-08
5.39485e-08
4.48525e-08
3.91402e-08
3.79881e-08
2.35226e-08
1.44478e-08
9.20456e-09
6.7803e-09
6.02267e-09
5.5035e-09
4.42097e-09
3.41026e-09
2.91148e-09
2.61795e-09
2.05447e-09
1.72872e-09
2.07482e-09
1.7176e-09
1.50618e-12
1.26722e-10
9.98811e-10
6.89346e-10
7.16854e-10
4.60256e-08
7.96493e-10
8.26012e-10
4.01652e-09
3.95744e-09
3.83829e-09
3.98289e-09
8.39738e-10
8.30889e-10
8.11137e-10
7.8498e-10
7.84075e-10
8.06878e-10
8.13641e-08
8.54489e-10
1.80085e-07
3.31296e-09
2.92902e-09
2.76245e-09
2.58113e-09
2.56452e-09
2.63176e-09
2.53301e-09
2.27759e-09
1.9884e-09
1.71346e-09
1.32064e-09
1.06936e-09
9.42656e-10
8.45414e-10
7.63119e-10
5.70331e-10
4.16943e-17
1.44931e-09
2.77848e-07
1.64543e-07
6.54714e-08
2.81489e-08
5.21033e-09
1.48307e-09
1.70301e-12
9.6239e-17
8.84471e-18
2.17598e-20
2.49896e-19
8.14349e-11
2.95165e-10
5.5084e-47
9.75157e-17
2.67631e-19
5.45996e-44
6.19564e-09
4.40342e-08
1.59203e-07
4.12207e-07
1.82135e-07
1.63638e-07
1.3495e-07
1.2251e-07
1.17325e-07
1.14386e-07
1.12731e-07
1.17894e-07
1.26986e-07
1.19375e-07
1.2819e-07
1.25187e-07
1.22586e-07
1.20915e-07
1.21794e-07
1.224e-07
1.02701e-07
9.11918e-08
8.07791e-08
2.59132e-07
6.54126e-08
5.72213e-08
4.90885e-08
4.12002e-08
3.46874e-08
3.27967e-08
1.0418e-09
1.31719e-08
9.2479e-09
1.71789e-11
5.57641e-09
5.09793e-09
4.05956e-09
3.0605e-09
2.68119e-09
2.39105e-09
2.06807e-09
1.72302e-09
2.07242e-09
1.59359e-09
3.78866e-12
1.55846e-10
1.00252e-09
7.07516e-10
7.33792e-10
7.68575e-10
8.05839e-10
8.33773e-10
3.85998e-09
3.77227e-09
3.74484e-09
3.8843e-09
8.47735e-10
8.35836e-10
8.15642e-10
7.92261e-10
7.92907e-10
8.1148e-10
9.00095e-08
4.17727e-09
3.7195e-09
3.26964e-09
2.90152e-09
2.74628e-09
2.56644e-09
2.55657e-09
2.61682e-09
2.51114e-09
2.25595e-09
1.96195e-09
8.66147e-08
1.3056e-09
1.0614e-09
9.34941e-10
8.3861e-10
7.3797e-10
5.65206e-10
1.44286e-21
3.10746e-09
1.26822e-07
5.85036e-10
2.43377e-08
8.43706e-09
1.73444e-41
2.12884e-42
4.60196e-18
4.26264e-17
1.66337e-20
1.44458e-19
5.73636e-47
2.63711e-13
6.21404e-13
4.14244e-13
2.15337e-12
1.83218e-10
1.51493e-09
1.15094e-08
6.88218e-08
2.29062e-07
2.66209e-07
2.03719e-07
1.53043e-07
2.53864e-08
2.8896e-08
1.13617e-07
5.32692e-08
1.14406e-07
1.11182e-07
1.11242e-07
1.17297e-07
1.12237e-07
1.07999e-07
1.048e-07
1.16742e-07
1.02551e-07
1.00586e-07
9.57408e-08
2.34034e-07
7.56235e-08
6.72869e-08
5.76802e-08
5.32308e-08
4.30629e-08
1.97382e-08
3.57345e-08
2.91896e-08
2.00144e-08
1.31267e-08
8.62035e-09
3.72382e-11
5.09724e-09
4.59883e-09
3.68818e-09
2.78553e-09
1.40458e-09
2.33968e-09
2.15438e-09
2.03763e-09
2.11382e-09
5.13236e-12
3.15118e-10
4.91671e-09
6.68087e-10
7.25914e-10
7.5274e-10
7.8138e-10
8.14591e-10
8.40472e-10
3.72017e-09
3.65978e-09
3.65731e-09
3.76866e-09
3.99241e-09
8.41042e-10
8.20387e-10
7.99623e-10
8.25169e-08
8.16451e-10
8.23206e-10
4.04511e-09
3.61453e-09
3.2298e-09
2.86935e-09
2.7265e-09
1.51551e-07
2.56827e-09
2.62756e-09
2.48529e-09
2.23086e-09
1.93436e-09
1.61225e-09
1.28842e-09
1.05217e-09
9.25804e-10
8.30679e-10
7.17121e-10
5.60093e-10
3.37388e-22
2.45617e-10
8.58582e-12
1.63781e-08
4.42788e-09
5.47241e-10
4.28852e-42
6.84952e-13
1.63327e-16
4.13479e-20
1.43723e-52
1.75635e-47
7.18813e-12
7.85863e-44
3.96548e-13
8.0691e-13
1.05699e-10
9.62394e-10
4.91387e-09
2.52225e-08
1.06381e-07
4.66952e-07
2.56266e-07
1.28029e-07
1.48369e-07
1.21786e-07
1.1794e-07
1.09143e-07
1.06724e-07
1.07099e-07
1.13662e-07
1.04111e-07
1.02006e-07
9.96668e-08
9.52109e-08
2.32122e-07
1.00023e-07
9.81045e-08
8.61608e-08
8.10684e-08
7.34874e-08
7.15036e-08
6.47439e-08
5.47908e-08
4.86967e-08
3.92374e-08
3.40853e-08
2.67756e-08
2.59453e-08
1.83804e-08
1.22939e-08
8.04663e-09
5.07852e-10
4.56228e-09
4.0564e-09
3.27957e-09
2.54635e-09
2.25826e-09
2.40141e-09
3.03983e-09
2.37623e-09
2.92563e-08
2.22062e-08
2.10754e-10
5.52194e-11
6.9475e-10
7.44157e-10
7.70038e-10
7.92034e-10
1.32235e-07
1.66396e-07
3.5997e-09
3.5339e-09
3.54499e-09
1.8262e-07
3.8247e-09
4.07232e-09
8.24321e-10
8.06775e-10
9.22781e-08
8.2146e-10
8.31106e-10
3.88862e-09
3.51108e-09
2.36431e-07
2.83287e-09
2.70323e-09
2.56197e-09
2.5855e-09
2.63724e-09
2.47153e-09
2.2026e-09
1.90556e-09
1.57854e-09
1.26956e-09
1.04218e-09
9.15324e-10
8.21467e-10
6.99105e-10
5.54465e-10
7.04928e-23
1.75906e-11
1.05577e-09
1.72424e-09
1.90687e-10
3.82442e-12
2.98866e-13
2.53218e-16
5.05267e-20
2.382e-19
9.6894e-53
2.49371e-47
1.1636e-42
1.25741e-09
1.02814e-43
6.33396e-44
6.0649e-44
4.6059e-09
3.74382e-10
5.7093e-08
1.413e-07
2.57297e-07
2.49411e-07
1.80223e-07
2.80804e-08
1.45657e-08
1.1191e-07
1.10562e-07
3.14977e-08
1.03463e-07
1.02859e-07
1.02477e-07
9.59199e-08
9.57266e-08
9.33194e-08
8.66806e-08
1.97607e-07
8.42148e-08
7.75164e-08
1.96409e-07
6.95917e-08
6.30897e-08
5.69075e-08
5.07354e-08
4.3572e-08
3.50793e-08
2.89555e-08
2.30616e-08
2.18564e-08
1.56044e-08
1.17038e-08
7.44168e-09
5.1437e-09
3.83465e-09
1.89867e-09
2.77045e-09
2.16797e-09
2.25563e-09
3.21187e-09
3.41413e-09
2.67829e-08
4.82187e-08
1.46521e-11
5.07236e-09
1.02981e-09
7.17641e-10
7.60157e-10
7.8661e-10
1.03405e-07
8.3216e-10
3.70674e-09
3.44936e-09
3.3822e-09
3.40805e-09
3.56504e-09
3.68209e-09
3.92576e-09
8.29187e-10
1.06954e-07
8.18382e-10
1.24966e-07
1.45827e-07
3.73977e-09
3.40513e-09
2.36402e-07
2.7895e-09
2.67653e-09
2.56086e-09
2.60092e-09
2.63494e-09
2.46233e-09
2.17152e-09
1.869e-09
1.54188e-09
1.24919e-09
1.03101e-09
9.0374e-10
8.09892e-10
6.83087e-10
5.48357e-10
2.06385e-24
2.03021e-13
7.81004e-11
2.96231e-10
7.22745e-13
2.43039e-16
4.72154e-16
2.14627e-18
1.51779e-52
1.98396e-52
2.26251e-14
7.96673e-47
1.55994e-08
6.06095e-10
3.17405e-09
1.19877e-09
2.22309e-09
1.47124e-08
2.64201e-09
1.25249e-07
3.56228e-07
2.59297e-07
2.35317e-07
1.73398e-07
1.32689e-07
1.84307e-08
1.10302e-07
1.08131e-07
1.01627e-07
1.01216e-07
1.02911e-07
9.80303e-08
9.33693e-08
6.01457e-08
1.04069e-07
8.83261e-08
8.46772e-08
7.92579e-08
7.65917e-08
7.05863e-08
6.49884e-08
5.96213e-08
5.29905e-08
4.52979e-08
4.00942e-08
3.1128e-08
2.432e-08
1.87077e-08
1.73182e-08
1.24984e-08
9.74201e-09
7.54528e-09
4.77965e-09
3.58695e-09
3.03415e-09
2.60386e-09
4.73387e-09
1.09938e-08
3.71937e-09
3.50235e-09
2.43533e-09
1.07547e-11
1.36958e-10
6.01286e-11
1.90078e-08
4.34461e-08
7.74291e-10
7.99819e-10
1.41726e-07
3.74642e-09
3.49933e-09
3.28231e-09
3.23391e-09
3.26486e-09
3.40764e-09
3.57123e-09
1.80224e-07
1.58097e-07
8.21254e-10
8.26033e-10
8.34179e-10
4.11314e-09
3.62269e-09
3.29593e-09
3.03055e-09
2.85933e-09
2.64603e-09
2.55213e-09
2.61434e-09
2.63167e-09
2.45205e-09
2.13264e-09
1.83207e-09
1.5065e-09
1.2259e-09
1.01866e-09
8.91365e-10
7.97123e-10
6.68441e-10
5.41823e-10
7.91495e-26
2.55138e-16
5.37105e-12
1.06767e-12
1.30037e-16
2.02838e-17
3.35836e-20
2.18147e-24
1.00156e-52
6.85776e-48
3.39861e-47
4.92161e-46
2.68151e-08
1.05336e-07
1.68277e-08
3.96372e-09
3.00971e-13
2.2619e-08
9.83368e-08
1.7952e-07
2.35808e-07
2.57981e-07
2.17496e-07
1.63495e-07
1.2988e-07
1.18165e-07
1.04803e-07
1.03334e-07
1.01124e-07
9.45719e-08
9.46215e-08
9.5778e-08
8.97277e-08
8.86715e-08
9.12711e-08
5.62923e-08
8.50031e-08
7.25677e-08
7.3764e-08
1.03549e-07
6.17401e-08
5.62384e-08
4.91324e-08
4.11607e-08
3.4029e-08
2.65247e-08
1.93318e-08
1.47967e-08
6.2315e-09
9.68055e-09
7.86747e-09
6.39887e-09
5.19834e-09
3.30005e-09
6.69797e-09
2.83629e-09
1.15322e-08
3.64192e-09
3.80867e-09
3.16726e-09
2.32884e-11
1.69549e-08
1.81078e-10
1.05011e-09
7.13856e-10
7.57348e-10
7.8594e-10
8.07437e-10
3.78293e-09
1.85003e-07
3.26847e-09
3.13485e-09
3.10431e-09
3.15006e-09
3.24737e-09
3.42855e-09
3.62023e-09
3.93567e-09
8.27938e-10
1.55976e-07
4.09141e-09
3.8872e-09
3.49877e-09
3.21134e-09
2.92863e-09
2.79834e-09
2.60588e-09
2.54174e-09
2.61035e-09
1.18398e-07
2.43807e-09
2.09279e-09
1.79012e-09
1.47186e-09
1.19915e-09
1.00395e-09
8.77841e-10
7.8347e-10
6.49691e-10
5.3436e-10
9.91137e-22
7.11871e-23
5.16575e-16
5.15435e-16
1.44547e-16
1.3517e-47
7.25595e-16
1.44426e-47
1.78732e-47
3.22385e-47
1.25649e-46
4.09004e-10
4.43517e-08
5.06259e-07
4.16208e-08
7.03506e-09
6.97979e-09
2.7665e-08
1.68046e-07
4.7442e-07
2.56278e-07
2.29522e-07
1.68325e-07
1.49551e-07
1.25927e-07
1.90058e-08
1.21358e-08
9.65746e-08
9.41689e-08
1.80976e-08
9.09918e-08
8.85619e-08
8.30901e-08
8.18435e-08
8.0847e-08
9.02727e-08
8.02179e-08
8.16031e-08
5.64724e-08
6.56544e-08
5.73483e-08
5.17373e-08
4.44845e-08
3.56406e-08
2.87993e-08
2.18599e-08
1.59335e-08
1.18245e-08
1.00532e-08
7.67786e-09
1.175e-08
1.2208e-08
1.19844e-08
3.94412e-09
3.75134e-09
3.73935e-09
3.62887e-09
3.77557e-09
3.42687e-09
1.03913e-11
3.31113e-12
3.7641e-09
6.10023e-11
6.8495e-10
7.33812e-10
7.7174e-10
1.48427e-07
1.74242e-07
3.42363e-09
3.24999e-09
3.09657e-09
2.98526e-09
2.97244e-09
3.03149e-09
3.12886e-09
3.27236e-09
3.49026e-09
3.7059e-09
4.05143e-09
3.97147e-09
3.88358e-09
3.69149e-09
3.36525e-09
3.12259e-09
2.8549e-09
2.7322e-09
2.56033e-09
2.52814e-09
2.60325e-09
2.62217e-09
2.41171e-09
9.63901e-08
1.74076e-09
1.43831e-09
1.16861e-09
9.86675e-10
8.63245e-10
7.68959e-10
6.34786e-10
5.26132e-10
1.19238e-21
1.34598e-22
5.76329e-21
4.28487e-16
1.18681e-14
7.23532e-17
1.33237e-13
1.14546e-44
1.01947e-10
5.60534e-10
1.058e-09
4.10801e-09
5.51048e-08
3.07531e-07
4.70395e-08
1.0619e-08
1.32521e-08
4.0947e-08
1.55277e-07
2.45185e-07
2.63407e-07
2.16669e-07
1.00906e-07
1.35459e-07
1.19978e-07
2.56674e-08
1.01628e-07
9.63431e-08
9.34551e-09
8.87236e-08
1.18607e-08
9.24106e-08
9.60361e-08
9.30547e-08
8.45707e-08
8.12169e-08
8.49372e-08
8.0853e-08
6.72121e-08
5.92136e-08
3.32158e-08
4.00602e-08
3.95235e-08
3.11318e-08
1.62321e-08
1.6682e-08
1.2106e-08
2.11591e-08
5.97236e-09
6.7264e-09
2.03531e-08
5.08072e-09
4.58418e-09
4.20371e-09
2.27711e-08
2.59877e-08
3.66739e-09
4.60045e-08
5.30322e-12
8.64329e-12
8.93266e-11
5.66345e-09
1.71221e-08
7.08993e-10
7.63321e-08
7.77547e-10
1.67235e-07
3.2098e-09
3.12606e-09
3.02967e-09
2.91167e-09
2.84042e-09
2.84532e-09
2.90589e-09
3.01056e-09
3.1432e-09
3.32741e-09
3.5497e-09
1.726e-07
3.73925e-09
3.67473e-09
1.86116e-07
3.23546e-09
3.03039e-09
2.7761e-09
2.67921e-09
2.51542e-09
2.50864e-09
2.59663e-09
2.57742e-09
1.03828e-07
2.02967e-09
1.69053e-09
1.40402e-09
1.13687e-09
9.68315e-10
8.47224e-10
7.49924e-10
6.20083e-10
5.17604e-10
7.20212e-23
6.70502e-21
2.11345e-19
1.64636e-47
1.5329e-13
2.96124e-10
4.09816e-10
1.09699e-43
6.21932e-12
9.04941e-10
1.64575e-08
6.45277e-10
8.46529e-08
2.90793e-07
9.17896e-09
1.97388e-08
3.12208e-08
4.33579e-08
3.1416e-07
5.30005e-07
2.36749e-07
1.65102e-07
1.43453e-07
1.31028e-07
1.15996e-07
1.00637e-07
9.13721e-08
9.04488e-08
8.38919e-08
8.40104e-08
7.6892e-08
8.81823e-08
8.76658e-08
1.03494e-08
8.04967e-08
7.72012e-08
7.27484e-08
6.85106e-08
1.69638e-08
5.30119e-08
4.98981e-08
4.15805e-08
3.39879e-08
2.60639e-08
1.20107e-08
1.29333e-08
8.83259e-09
5.77398e-09
4.13184e-09
2.78624e-09
1.93443e-09
1.34655e-09
2.31922e-09
2.94346e-08
3.57873e-08
3.69334e-09
3.33366e-09
8.78406e-08
9.79103e-12
9.06207e-11
4.46493e-11
5.7633e-11
2.40229e-08
7.25724e-10
7.5771e-10
3.16358e-09
3.08681e-09
2.91546e-09
2.89492e-09
2.8181e-09
2.75772e-09
2.72401e-09
2.73991e-09
2.79934e-09
2.88853e-09
3.02365e-09
3.16816e-09
3.39079e-09
3.62104e-09
3.57091e-09
3.54276e-09
3.41737e-09
3.13145e-09
2.1892e-07
2.81624e-09
1.49647e-07
1.40378e-07
2.48743e-09
2.57468e-09
2.53117e-09
2.34446e-09
1.99244e-09
1.63794e-09
1.3647e-09
1.10451e-09
9.4899e-10
8.28442e-10
7.30811e-10
6.05344e-10
5.08926e-10
2.9476e-15
3.28591e-15
7.42091e-14
7.40197e-46
5.70776e-07
1.31232e-08
1.4817e-11
3.22522e-08
1.37474e-08
7.90891e-08
1.67728e-08
9.80448e-09
1.01254e-07
1.71267e-07
4.01501e-08
4.01422e-08
6.99456e-08
1.39198e-07
2.17584e-07
5.15526e-07
2.24102e-07
1.75002e-07
9.83309e-08
1.20743e-07
1.09761e-07
9.15433e-08
2.0574e-08
8.44867e-08
7.81071e-08
7.90849e-08
7.60681e-08
7.16806e-08
1.42361e-08
7.3649e-08
1.18789e-08
6.63383e-08
6.20233e-08
6.69885e-09
1.14937e-08
4.77432e-08
4.4089e-08
3.68502e-08
2.87757e-08
2.05523e-08
1.46649e-08
9.53036e-09
6.08449e-09
3.736e-09
1.76491e-09
3.77364e-08
1.64826e-10
3.66027e-10
1.8006e-10
9.08572e-11
1.7711e-11
9.10799e-08
1.07061e-11
2.21117e-10
9.7118e-11
5.23005e-09
1.04552e-09
6.8018e-10
7.07977e-10
7.37255e-10
3.1762e-09
2.90246e-09
2.78538e-09
2.68965e-09
1.98806e-07
2.65942e-09
2.73957e-09
2.71768e-09
2.74727e-09
2.69886e-09
2.78462e-09
2.90183e-09
3.04366e-09
3.2043e-09
1.85768e-07
3.42383e-09
3.3966e-09
3.24844e-09
3.02569e-09
2.83228e-09
2.7213e-09
2.59234e-09
2.49349e-09
2.50624e-09
2.53858e-09
2.47683e-09
9.95731e-08
1.94779e-09
1.59428e-09
1.32539e-09
1.08103e-09
9.2861e-10
8.08916e-10
7.11567e-10
5.92123e-10
4.99754e-10
2.60297e-09
1.50012e-11
4.50208e-11
1.42622e-10
4.75711e-07
1.12807e-08
6.59698e-08
1.47017e-07
1.02265e-07
1.34074e-07
1.42513e-07
1.13773e-07
1.68602e-07
1.91878e-07
1.12643e-07
1.94371e-08
1.15273e-07
1.59314e-07
2.14921e-07
2.4993e-07
2.65654e-07
1.71931e-07
1.32888e-07
8.81669e-08
4.36764e-08
2.71179e-08
3.21267e-08
7.52049e-08
7.03592e-08
6.73301e-08
2.20228e-08
1.89004e-08
6.21055e-08
5.87442e-08
5.6369e-08
9.43768e-09
8.90868e-09
5.72666e-08
5.3095e-08
1.02802e-08
3.67128e-08
2.84464e-08
7.14194e-09
1.55643e-08
2.50895e-08
6.37867e-09
6.18351e-08
1.60375e-09
3.95207e-10
9.09618e-08
1.65306e-11
7.69281e-11
1.14915e-10
1.50064e-10
1.73353e-10
1.93205e-10
1.32689e-10
9.94821e-09
5.6083e-09
1.02482e-09
2.81752e-08
4.80474e-08
7.20757e-10
3.16419e-09
2.83433e-09
2.62512e-09
2.52046e-09
2.47871e-09
2.59762e-09
2.58556e-09
2.58189e-09
2.59925e-09
2.62234e-09
2.68375e-09
1.57785e-07
2.76645e-09
2.89868e-09
2.22091e-07
3.23028e-09
2.03389e-07
3.19529e-09
3.10038e-09
2.8937e-09
2.72095e-09
2.62873e-09
1.42265e-07
2.47458e-09
2.52796e-09
2.52958e-09
1.0258e-07
2.19442e-09
1.88826e-09
1.54584e-09
1.27858e-09
1.05321e-09
9.01499e-10
7.84705e-10
6.87251e-10
5.77071e-10
4.8838e-10
2.12887e-08
1.81164e-09
2.88063e-09
2.65836e-08
1.25062e-07
7.32766e-08
1.36917e-07
2.23403e-07
1.96679e-07
1.93018e-07
3.22765e-07
2.82212e-07
2.88033e-07
2.31305e-07
1.38068e-07
1.49298e-07
1.68241e-07
3.33044e-07
5.20054e-07
2.24914e-07
1.78604e-07
1.51408e-07
1.18737e-07
9.84829e-08
4.77371e-08
4.80179e-08
5.22307e-08
6.63949e-08
6.16214e-08
5.75036e-08
5.17204e-08
5.10924e-08
4.88175e-08
4.69632e-08
4.71673e-08
4.63006e-08
4.45038e-08
4.25691e-08
9.9914e-09
3.53945e-08
5.88643e-09
4.75063e-09
8.84285e-09
1.05005e-08
6.14976e-09
3.45634e-09
4.28052e-10
3.38685e-13
3.11736e-10
6.75879e-10
8.3917e-11
1.49007e-08
1.37368e-08
1.3344e-08
5.68393e-11
4.79669e-11
6.2403e-09
1.76578e-08
6.80569e-10
4.11113e-08
6.46671e-08
1.18318e-07
2.86026e-09
2.74626e-09
2.53539e-09
2.37769e-09
2.38758e-09
2.40014e-09
2.42567e-09
2.47152e-09
2.49992e-09
2.51898e-09
2.55006e-09
2.58379e-09
2.63e-09
2.63079e-09
2.72986e-09
2.83089e-09
2.98152e-09
3.00309e-09
3.01625e-09
2.93284e-09
2.75969e-09
2.70209e-09
2.56007e-09
2.43624e-09
2.44456e-09
2.51861e-09
2.53308e-09
2.35582e-09
2.069e-09
1.8075e-09
1.4867e-09
1.2238e-09
1.01693e-09
8.67734e-10
7.55563e-10
6.62748e-10
5.58319e-10
4.7447e-10
8.52119e-08
4.92548e-09
2.70135e-08
4.18968e-08
7.40877e-08
7.38325e-08
9.13845e-08
1.23917e-07
1.51936e-07
1.96687e-07
5.48854e-07
2.86909e-07
2.8501e-07
3.16186e-07
2.33498e-07
2.82388e-07
2.1831e-07
2.24995e-07
4.51952e-07
1.75754e-07
3.19278e-07
1.27218e-07
1.09715e-07
8.18891e-08
8.87327e-08
6.44481e-08
5.98758e-08
5.60969e-08
1.12909e-07
4.28549e-08
7.80433e-08
7.22338e-08
3.67728e-08
3.33648e-08
5.09801e-08
3.46999e-08
3.51141e-08
3.54861e-08
3.19215e-08
9.63662e-09
2.3305e-08
1.65511e-08
1.03758e-08
4.26571e-08
3.14303e-09
3.09148e-10
7.89879e-11
6.15231e-10
7.02714e-10
7.27247e-10
7.10605e-10
1.93085e-08
6.78518e-10
1.86098e-08
6.80092e-10
2.04661e-08
2.13346e-08
3.75973e-08
7.03216e-10
7.06695e-10
7.03732e-10
2.60732e-09
2.49166e-09
2.43104e-09
1.2956e-07
2.29841e-09
2.27886e-09
2.28726e-09
1.27906e-07
1.33864e-07
2.41296e-09
2.44334e-09
2.45268e-09
2.503e-09
2.5468e-09
2.59234e-09
2.58455e-09
2.65879e-09
2.75807e-09
2.8016e-09
2.8172e-09
2.76496e-09
1.57705e-07
2.5731e-09
2.47542e-09
2.42936e-09
2.41874e-09
2.48818e-09
2.5036e-09
9.61068e-08
1.98926e-09
1.70983e-09
1.42852e-09
1.15944e-09
9.76995e-10
8.29782e-10
7.22425e-10
6.38743e-10
5.39196e-10
4.59429e-10
8.61847e-08
3.20251e-08
4.73514e-08
5.47597e-08
5.61091e-08
4.05386e-08
3.57854e-08
4.72355e-08
5.48019e-08
1.11637e-07
1.99088e-07
2.6503e-07
2.98415e-07
3.14961e-07
3.91916e-07
2.62984e-07
2.43483e-07
5.16014e-07
2.02899e-07
1.55425e-07
1.24277e-07
2.65372e-07
2.24984e-07
1.52457e-07
1.26492e-07
5.23991e-08
4.63247e-08
4.49413e-08
3.891e-08
3.32174e-08
1.55854e-07
2.64584e-08
2.49901e-08
9.87968e-08
2.58378e-08
2.78915e-08
5.38906e-08
2.80091e-08
2.48283e-08
2.12754e-08
1.62257e-08
3.3067e-08
6.81341e-09
3.67067e-09
1.73693e-07
1.13171e-07
8.64402e-08
8.055e-10
7.95554e-10
7.80637e-10
7.56856e-10
4.97891e-08
4.6028e-08
7.19438e-10
7.16461e-10
7.09742e-10
7.04997e-10
7.09931e-10
7.07059e-10
2.56048e-09
2.40854e-09
1.50375e-07
2.23748e-09
1.15831e-07
2.21858e-09
2.22178e-09
2.27005e-09
2.30585e-09
2.33374e-09
2.37385e-09
1.25268e-07
2.44322e-09
2.45725e-09
2.44823e-09
2.45932e-09
2.51353e-09
2.53852e-09
2.61565e-09
2.58727e-09
1.7433e-07
2.65188e-09
2.62257e-09
2.59107e-09
2.49687e-09
2.40668e-09
2.40376e-09
2.44858e-09
2.45423e-09
2.42328e-09
2.19843e-09
1.9047e-09
1.61088e-09
1.35389e-09
1.10298e-09
9.36976e-10
7.9118e-10
6.88887e-10
6.16313e-10
5.19921e-10
4.4292e-10
7.91313e-08
8.12177e-08
9.90349e-08
8.96585e-08
1.07627e-07
1.6363e-07
1.7055e-07
9.82611e-08
4.58167e-08
1.03186e-07
8.88655e-08
4.91979e-07
2.64445e-07
4.95946e-07
2.964e-07
2.68991e-07
2.37735e-07
1.84779e-07
1.56581e-07
1.29978e-07
1.0054e-07
3.763e-07
6.84158e-08
5.70972e-08
4.29398e-08
3.72553e-08
3.00508e-08
2.17585e-07
2.84301e-08
2.35124e-07
2.04006e-08
1.9145e-08
2.13331e-07
1.72155e-08
1.57804e-07
2.0283e-08
1.97482e-08
1.9975e-08
1.92577e-08
1.56116e-08
1.0423e-08
6.73468e-09
2.9233e-09
1.98879e-07
1.00544e-10
7.40907e-10
3.53841e-09
3.23684e-09
3.21741e-09
3.24997e-09
1.47279e-07
1.35493e-07
1.26036e-07
7.39291e-10
1.2756e-07
7.18441e-10
2.86981e-09
1.39869e-07
2.43264e-09
2.28869e-09
2.17261e-09
2.14727e-09
2.13105e-09
2.11972e-09
2.17034e-09
2.2174e-09
2.30428e-09
2.35006e-09
2.371e-09
2.38826e-09
2.40993e-09
2.41365e-09
2.43396e-09
2.44254e-09
2.42858e-09
2.42678e-09
1.34342e-07
2.48132e-09
2.52479e-09
2.57792e-09
2.60035e-09
2.57324e-09
1.39457e-07
2.39851e-09
2.39075e-09
2.36354e-09
2.43988e-09
2.45798e-09
2.31566e-09
2.07253e-09
1.81056e-09
1.54118e-09
1.27963e-09
1.05553e-09
8.96741e-10
7.521e-10
6.58445e-10
5.9076e-10
5.00217e-10
4.2598e-10
7.78745e-08
9.09732e-08
1.17387e-07
1.49248e-07
1.95656e-07
2.40539e-07
2.76835e-07
2.64721e-07
1.37937e-07
5.70121e-08
1.89653e-07
7.90386e-08
1.5638e-07
2.18862e-07
2.32539e-07
2.04034e-07
1.74697e-07
3.0656e-07
1.22976e-07
9.98383e-08
7.68334e-08
6.06656e-08
4.95211e-08
3.90184e-08
3.02258e-08
2.38831e-07
2.08181e-08
1.89702e-08
1.61949e-08
1.33478e-08
1.05273e-08
8.77261e-09
9.21291e-09
1.07207e-08
1.28155e-08
1.28242e-08
1.36993e-08
8.98008e-08
1.24052e-08
9.40076e-09
5.15674e-09
2.39869e-09
2.13968e-07
2.83747e-11
7.18371e-10
3.1814e-09
2.00599e-07
2.738e-09
2.70258e-09
2.73784e-09
2.84124e-09
2.85059e-09
2.82104e-09
2.79989e-09
2.6709e-09
2.51812e-09
2.40269e-09
2.2908e-09
2.18894e-09
2.12503e-09
2.05738e-09
2.02587e-09
2.06954e-09
2.10677e-09
9.07876e-08
2.26011e-09
2.28299e-09
2.33131e-09
2.3831e-09
2.43171e-09
2.45841e-09
2.47223e-09
2.47137e-09
2.42184e-09
2.4151e-09
2.38878e-09
2.37044e-09
2.40179e-09
2.42558e-09
2.44102e-09
2.45871e-09
2.45593e-09
2.39317e-09
2.3601e-09
2.35694e-09
2.40445e-09
2.38973e-09
9.7887e-08
2.26149e-09
1.96746e-09
1.70063e-09
1.45774e-09
1.19767e-09
9.99925e-10
8.43786e-10
7.11925e-10
6.29584e-10
5.63838e-10
4.78601e-10
4.08432e-10
8.13321e-08
9.7285e-08
1.04795e-07
1.34771e-07
1.58303e-07
1.522e-07
1.78499e-07
2.61177e-07
2.54982e-07
1.14718e-07
5.26751e-08
2.69694e-08
6.78113e-08
2.90217e-07
1.653e-07
1.74518e-07
1.88719e-07
1.12904e-07
3.27989e-07
6.75267e-08
4.57067e-07
4.45997e-08
3.4545e-08
2.29563e-08
3.96364e-07
3.85858e-07
9.31731e-09
4.02083e-07
6.53566e-09
4.77493e-09
3.10254e-09
1.90762e-09
3.59066e-07
2.99711e-09
4.68548e-09
6.00664e-09
1.34368e-07
7.35418e-09
6.52697e-09
1.25151e-07
1.70348e-09
2.12308e-07
6.96873e-11
2.20452e-09
2.85895e-09
2.64755e-09
2.56947e-09
2.48554e-09
2.45226e-09
2.46765e-09
1.48304e-07
2.36581e-09
2.3588e-09
1.5189e-07
1.41535e-07
2.20725e-09
2.17666e-09
2.09257e-09
9.10789e-08
1.99346e-09
1.98823e-09
2.01019e-09
2.0813e-09
2.13803e-09
2.18556e-09
2.24133e-09
2.26853e-09
2.33248e-09
2.38571e-09
2.40863e-09
1.00798e-07
2.42815e-09
2.46054e-09
2.4591e-09
2.40886e-09
2.3767e-09
2.35863e-09
2.33228e-09
2.33623e-09
2.35376e-09
1.33115e-07
1.33994e-07
2.32115e-09
2.3403e-09
2.35239e-09
2.39775e-09
2.39431e-09
2.30505e-09
2.17478e-09
1.87788e-09
1.59377e-09
1.37055e-09
1.12082e-09
9.46693e-10
7.93708e-10
6.77488e-10
6.00393e-10
5.34913e-10
4.54798e-10
3.92279e-10
8.72479e-08
1.06094e-07
1.0414e-07
1.02344e-07
9.10068e-08
6.8709e-08
7.78428e-08
1.40976e-07
2.27881e-07
1.85945e-07
7.17468e-08
2.50181e-41
3.08025e-08
6.77128e-08
9.80121e-08
9.72611e-08
8.15944e-08
7.15641e-08
5.18248e-08
4.43967e-08
3.53304e-08
2.72982e-08
4.67859e-07
1.43956e-08
8.52054e-09
4.00213e-07
2.46015e-09
4.10501e-07
9.4708e-10
9.4533e-10
1.81705e-09
2.77082e-09
2.74775e-09
2.22633e-09
1.29455e-09
8.82629e-10
1.11706e-09
2.30601e-09
1.75212e-09
9.60452e-10
7.4511e-11
1.07544e-09
2.249e-09
2.71378e-09
2.51172e-09
1.11394e-07
2.35834e-09
2.34486e-09
2.31982e-09
2.26252e-09
1.12444e-07
2.19996e-09
2.18259e-09
2.16814e-09
2.12323e-09
2.05526e-09
1.99623e-09
1.97842e-09
1.9685e-09
7.41529e-08
1.97203e-09
1.98347e-09
2.04764e-09
2.09041e-09
2.08299e-09
2.08927e-09
2.12625e-09
2.18461e-09
2.26137e-09
2.34837e-09
2.41153e-09
2.43418e-09
2.42645e-09
2.41766e-09
2.43219e-09
2.37501e-09
2.34233e-09
2.33463e-09
2.31868e-09
2.30325e-09
2.28692e-09
1.26688e-07
2.31256e-09
2.31465e-09
2.37611e-09
2.34633e-09
2.36599e-09
2.23452e-09
2.0385e-09
1.77792e-09
1.50566e-09
1.28198e-09
1.06161e-09
8.92299e-10
7.44528e-10
6.4467e-10
5.70396e-10
5.06865e-10
4.31185e-10
3.73461e-10
9.48558e-08
1.10605e-07
9.21971e-08
7.08454e-08
4.93277e-08
2.78394e-08
2.81042e-08
5.75619e-08
1.29739e-07
1.79741e-07
1.09633e-07
4.79521e-08
2.08127e-08
3.4043e-08
4.25607e-08
5.01022e-08
4.00168e-07
4.40013e-07
3.35515e-08
4.53269e-07
2.09301e-08
1.6444e-08
9.19046e-09
4.36772e-09
2.36981e-09
5.52619e-11
2.0176e-07
1.91546e-09
1.49342e-07
2.5042e-09
2.16792e-09
2.86458e-09
1.52945e-07
3.69728e-09
3.2732e-09
1.76512e-09
7.39011e-10
2.04718e-07
7.42746e-10
2.23234e-07
1.23229e-09
1.89631e-09
2.54252e-09
1.05754e-07
2.27803e-09
2.24143e-09
8.60984e-08
2.26411e-09
8.83477e-08
2.23718e-09
8.97515e-08
2.11734e-09
2.08497e-09
2.06186e-09
8.13352e-08
1.96668e-09
1.94369e-09
1.93721e-09
1.923e-09
1.90529e-09
1.90002e-09
1.88089e-09
1.89279e-09
6.86187e-08
1.93475e-09
1.93509e-09
1.96714e-09
2.06302e-09
2.14913e-09
2.21829e-09
2.25801e-09
2.33186e-09
2.37516e-09
2.40939e-09
2.37869e-09
2.40298e-09
2.37413e-09
2.31112e-09
2.3042e-09
2.29815e-09
2.28642e-09
2.2788e-09
1.10275e-07
2.35678e-09
2.34572e-09
2.36338e-09
2.26163e-09
2.16136e-09
1.92812e-09
1.65384e-09
1.41873e-09
1.18651e-09
9.96507e-10
8.3525e-10
7.02399e-10
6.11797e-10
5.40896e-10
4.7753e-10
4.09982e-10
3.54007e-10
1.03503e-07
9.87603e-08
6.42594e-08
4.24004e-08
2.28341e-08
1.15808e-08
1.11094e-08
2.15856e-08
6.25968e-08
1.21051e-07
1.21177e-07
6.12743e-08
3.57202e-08
2.08912e-08
3.0552e-08
3.64502e-07
2.79094e-08
2.41935e-08
4.02777e-07
1.56311e-08
1.38142e-08
6.58431e-09
1.82406e-09
6.47908e-09
1.38316e-10
4.38583e-10
9.41144e-10
2.54116e-09
1.39861e-07
1.9112e-09
1.23475e-09
1.41594e-09
2.00146e-09
2.746e-09
3.8569e-09
1.79624e-07
3.13614e-09
2.29478e-09
2.10671e-09
2.18498e-07
1.84435e-09
9.91885e-08
2.19702e-09
7.97434e-08
7.43915e-08
1.99425e-09
1.99605e-09
2.03288e-09
2.10511e-09
7.73748e-08
2.08014e-09
2.02708e-09
1.99358e-09
1.98517e-09
1.94536e-09
1.8903e-09
1.86217e-09
1.83942e-09
1.79604e-09
1.74352e-09
1.72448e-09
1.71345e-09
1.69324e-09
1.71434e-09
1.7055e-09
1.72154e-09