/*--------------------------------*- C++ -*----------------------------------*\
  =========                 |
  \\      /  F ield         | OpenFOAM: The Open Source CFD Toolbox
   \\    /   O peration     | Website:  https://openfoam.org
    \\  /    A nd           | Version:  6
     \\/     M anipulation  |
\*---------------------------------------------------------------------------*/
FoamFile
{
    version     2.0;
    format      ascii;
    class       volScalarField;
    location    "0.1";
    object      T-CH2;
}
// * * * * * * * * * * * * * * * * * * * * * * * * * * * * * * * * * * * * * //

dimensions      [0 0 0 0 0 0 0];

internalField   nonuniform List<scalar> 
8000
(
1.87061e-11
2.85922e-07
3.87112e-06
1.40194e-05
1.84767e-05
1.43536e-05
7.41762e-06
2.48573e-06
5.00307e-07
3.56638e-08
8.27754e-10
2.54695e-11
6.1919e-11
9.80959e-08
3.14988e-08
7.05396e-09
6.55416e-07
4.84465e-06
5.95903e-06
9.02205e-07
1.06871e-06
3.63331e-06
1.66955e-05
3.57661e-05
2.63079e-05
1.799e-05
1.63632e-05
1.72123e-05
1.88849e-05
6.14731e-06
3.61875e-06
2.64386e-05
2.73275e-05
2.25003e-05
1.74722e-05
1.40209e-05
1.24746e-05
1.32542e-05
1.79349e-05
2.24219e-05
1.90119e-05
1.72013e-05
1.87252e-05
2.26877e-05
2.68059e-05
2.72878e-05
2.19952e-05
1.60345e-05
1.16713e-05
3.12529e-06
2.83558e-07
4.98949e-06
5.72596e-06
5.53878e-06
5.23654e-06
4.86634e-06
4.55996e-06
4.39977e-06
4.38299e-06
4.51356e-06
6.36809e-06
7.3072e-06
1.00276e-05
1.16259e-05
1.40965e-05
1.25063e-05
1.59031e-05
1.4177e-05
1.52826e-05
1.59466e-05
1.71198e-05
1.7807e-05
1.76826e-05
2.37184e-05
2.35077e-05
1.70884e-05
1.7114e-05
1.66765e-05
1.59013e-05
1.55888e-05
1.63879e-05
1.65545e-05
1.75332e-05
2.4112e-05
2.53532e-05
2.62114e-05
2.6154e-05
2.58211e-05
2.33185e-05
2.36611e-05
2.18245e-05
1.99255e-05
1.84526e-05
1.72468e-05
1.40749e-05
1.22672e-05
1.11013e-05
1.02185e-05
9.94729e-06
7.58325e-06
7.11149e-12
3.19348e-07
4.41559e-06
1.4728e-05
1.95835e-05
1.44032e-05
6.97815e-06
2.34911e-06
4.37709e-07
2.54612e-08
4.50187e-10
3.12398e-11
1.99165e-10
1.72491e-06
8.18753e-07
5.90644e-08
1.17128e-07
2.26246e-06
2.55073e-06
3.00622e-06
2.14658e-06
4.97262e-06
1.86776e-05
3.57947e-05
2.53019e-05
1.73564e-05
1.59124e-05
1.70361e-05
1.93034e-05
2.02758e-05
2.2927e-05
2.71259e-05
2.71751e-05
2.31492e-05
1.92561e-05
1.63121e-05
1.46741e-05
1.51373e-05
1.99431e-05
1.13186e-05
2.21726e-05
1.85553e-05
1.96579e-05
2.33331e-05
2.68985e-05
2.67983e-05
2.13918e-05
1.57314e-05
1.18269e-05
9.38457e-06
6.80459e-06
6.11463e-06
5.66069e-06
5.45117e-06
5.17395e-06
4.83809e-06
4.56355e-06
4.42564e-06
4.42599e-06
4.56038e-06
6.45324e-06
7.431e-06
1.01594e-05
1.15011e-05
1.38707e-05
1.25966e-05
1.60183e-05
1.4245e-05
1.53345e-05
1.6032e-05
1.64974e-05
1.78742e-05
1.7695e-05
2.37657e-05
2.35467e-05
1.71033e-05
1.71571e-05
1.67085e-05
1.59489e-05
1.55763e-05
1.64183e-05
1.65605e-05
1.75635e-05
2.41359e-05
2.53419e-05
2.62073e-05
2.61404e-05
2.58055e-05
2.52796e-05
2.36331e-05
2.18044e-05
1.9902e-05
1.84322e-05
1.72387e-05
1.40527e-05
1.2252e-05
1.10882e-05
1.02059e-05
9.95072e-06
7.5726e-06
4.48295e-12
5.10426e-07
4.52368e-06
1.20524e-05
1.39968e-05
9.95532e-06
4.63384e-06
2.58081e-06
1.23845e-06
1.56211e-08
5.24861e-09
2.85243e-11
4.48053e-10
4.52833e-06
6.96139e-06
2.08335e-07
2.33921e-08
9.12017e-08
5.57486e-06
1.61918e-05
6.33977e-06
8.44765e-06
2.29302e-05
3.54834e-05
2.33993e-05
1.58971e-05
1.50518e-05
1.66464e-05
1.94499e-05
2.16997e-05
2.47257e-05
2.80136e-05
2.74705e-05
2.46324e-05
2.28868e-05
2.13412e-05
1.92798e-05
1.88855e-05
2.00838e-05
2.16279e-05
1.97275e-05
1.93043e-05
2.10915e-05
2.44091e-05
2.69936e-05
2.5709e-05
2.0035e-05
1.50034e-05
1.16388e-05
9.4794e-06
8.09764e-06
5.84185e-06
5.35827e-06
5.24304e-06
5.05862e-06
4.79375e-06
4.57184e-06
4.47949e-06
4.51522e-06
5.46693e-06
6.63934e-06
7.71033e-06
1.0439e-05
1.24814e-05
1.40772e-05
1.279e-05
1.37658e-05
1.44006e-05
1.54402e-05
1.62062e-05
1.67951e-05
1.79961e-05
1.90152e-05
2.38708e-05
2.36299e-05
1.87509e-05
1.72517e-05
1.67776e-05
1.60504e-05
1.65475e-05
1.64864e-05
1.65728e-05
1.76329e-05
2.4183e-05
2.12412e-05
2.61983e-05
2.61103e-05
2.57721e-05
2.51153e-05
2.35774e-05
2.17606e-05
1.98508e-05
1.67538e-05
1.55621e-05
1.40039e-05
1.22188e-05
1.10594e-05
1.01782e-05
8.89939e-06
7.54912e-06
9.40389e-12
1.00591e-06
9.5271e-06
1.33787e-05
9.76625e-06
5.97714e-06
2.59474e-06
7.72856e-07
7.94462e-08
1.66916e-09
2.15072e-11
5.14632e-12
8.55282e-11
1.1607e-06
2.97402e-06
3.97983e-07
1.09469e-08
2.12599e-08
1.66847e-06
4.8458e-06
3.8177e-06
9.89581e-06
2.68094e-05
3.38898e-05
2.13985e-05
6.66453e-07
1.44201e-05
1.62035e-05
1.89305e-05
2.21336e-05
2.59135e-05
2.85473e-05
2.78581e-05
2.60688e-05
2.67616e-05
1.21116e-05
2.54882e-05
1.41494e-05
2.27337e-05
2.19531e-05
2.10048e-05
2.13445e-05
2.30423e-05
2.55645e-05
2.66656e-05
2.35205e-05
1.84084e-05
1.37577e-05
1.11106e-05
9.29424e-06
7.88822e-06
5.45368e-06
4.23331e-08
5.02128e-06
4.95853e-06
4.76449e-06
4.59109e-06
4.55282e-06
4.65344e-06
6.39799e-06
6.92081e-06
9.08959e-06
1.08367e-05
1.3685e-05
1.43164e-05
1.30863e-05
1.40725e-05
1.46532e-05
1.55783e-05
1.64375e-05
1.85737e-05
2.3611e-05
2.35757e-05
2.40326e-05
2.37511e-05
1.75148e-05
1.73947e-05
1.68796e-05
1.61987e-05
1.59776e-05
1.65939e-05
1.65884e-05
1.77443e-05
2.4241e-05
2.54612e-05
2.61843e-05
2.60643e-05
2.57219e-05
2.49757e-05
2.3497e-05
2.16946e-05
1.97738e-05
1.82142e-05
1.68173e-05
1.39283e-05
1.21691e-05
1.10161e-05
1.01362e-05
9.59151e-06
7.51226e-06
5.80896e-12
1.59673e-06
1.58112e-06
1.83013e-05
7.9398e-06
3.67699e-06
1.18245e-06
1.83598e-07
7.65985e-09
7.16497e-11
2.87833e-11
4.4421e-14
5.86279e-14
4.27194e-07
2.71701e-06
4.71108e-08
4.54501e-09
1.17121e-08
3.54911e-07
1.22098e-06
3.46144e-06
1.35514e-05
3.14755e-05
3.10082e-05
2.02111e-05
1.49643e-05
1.4736e-05
1.57887e-05
1.80675e-05
2.15695e-05
2.5722e-05
2.83951e-05
2.79196e-05
2.648e-05
2.59348e-05
2.5339e-05
2.40274e-05
2.36684e-05
2.40292e-05
9.28031e-06
2.36413e-05
2.39402e-05
2.49712e-05
2.61565e-05
2.57601e-05
2.08746e-05
1.58861e-05
1.26494e-05
1.04532e-05
8.73116e-06
7.6949e-06
5.49654e-06
4.266e-06
5.02449e-06
4.93455e-06
4.76804e-06
4.61704e-06
4.64554e-06
5.6896e-06
6.70184e-06
7.31571e-06
9.61691e-06
1.14319e-05
1.46932e-05
1.39632e-05
1.57102e-05
1.44737e-05
1.5023e-05
1.66888e-05
1.67108e-05
1.73411e-05
2.38615e-05
2.39888e-05
2.42316e-05
2.39022e-05
1.78193e-05
1.75708e-05
1.70108e-05
1.63801e-05
1.62866e-05
1.67287e-05
1.81482e-05
1.79011e-05
1.98957e-05
2.55295e-05
2.61636e-05
2.60023e-05
2.56552e-05
2.48214e-05
2.33935e-05
2.16072e-05
1.96723e-05
1.80373e-05
1.64898e-05
1.38323e-05
1.21035e-05
1.09588e-05
1.0081e-05
9.30623e-06
7.46642e-06
1.30841e-12
7.52871e-07
2.31188e-05
1.18052e-05
4.3761e-06
1.79406e-06
3.44931e-07
3.72575e-07
3.40961e-10
1.98977e-12
2.63022e-13
3.03384e-13
2.69614e-12
2.82438e-08
7.41909e-08
4.56619e-10
1.08332e-09
1.19284e-09
5.17277e-08
9.68131e-07
5.46245e-06
2.08984e-05
1.07772e-05
1.00578e-05
1.84881e-05
1.52178e-05
1.48809e-05
1.54745e-05
1.72775e-05
2.03189e-05
2.44126e-05
2.73743e-05
2.72071e-05
2.64151e-05
2.54008e-05
2.43876e-05
2.36681e-05
2.38126e-05
2.45554e-05
2.47696e-05
2.481e-05
2.52568e-05
1.52145e-05
2.59903e-05
2.35411e-05
1.81772e-05
1.3615e-05
1.14552e-05
9.95839e-06
1.11587e-07
7.59203e-06
5.53217e-06
2.24085e-08
4.99514e-06
4.94222e-06
4.80368e-06
4.68603e-06
4.88154e-06
6.67751e-06
7.13742e-06
7.8515e-06
1.03379e-05
1.21051e-05
1.53672e-05
1.45043e-05
1.63222e-05
1.49551e-05
1.55034e-05
1.6196e-05
1.70164e-05
1.76664e-05
2.41456e-05
2.43437e-05
2.44362e-05
2.40741e-05
1.80878e-05
1.77638e-05
1.71678e-05
1.65886e-05
1.65274e-05
1.68855e-05
1.84221e-05
2.35441e-05
2.45591e-05
2.55728e-05
2.61351e-05
2.59227e-05
2.55659e-05
2.4665e-05
2.32683e-05
2.14991e-05
1.95478e-05
1.7856e-05
1.46011e-05
1.37188e-05
1.20249e-05
1.08876e-05
1.00136e-05
9.07761e-06
7.41313e-06
5.30355e-14
3.83086e-07
9.74059e-06
3.57125e-06
1.61452e-06
5.57888e-07
5.32666e-07
5.23291e-08
4.77385e-10
9.77948e-13
2.36818e-13
1.5623e-12
1.94521e-11
2.15491e-09
4.1155e-09
3.00176e-09
1.01972e-08
5.85539e-08
3.00988e-07
1.616e-06
8.74186e-06
3.00366e-05
3.4417e-05
2.404e-05
1.74063e-05
1.13785e-06
1.26637e-06
1.49015e-05
2.26589e-06
1.88802e-05
2.19815e-05
2.50336e-05
2.61305e-05
2.57944e-05
2.51283e-05
2.4433e-05
2.42953e-05
2.42224e-05
2.47076e-05
2.48972e-05
1.40163e-05
2.53934e-05
2.57846e-05
2.4765e-05
2.14316e-05
1.55742e-05
8.87979e-07
1.08991e-05
9.74409e-06
8.67438e-06
7.73539e-06
6.68496e-06
2.76255e-08
5.02593e-06
5.01176e-06
4.96225e-06
4.91511e-06
1.20762e-07
7.09757e-06
7.72692e-06
8.73291e-06
1.1273e-05
1.34121e-05
1.51741e-05
1.23711e-05
1.43889e-05
1.54886e-05
1.6057e-05
1.66125e-05
1.73271e-05
1.79421e-05
2.44292e-05
2.46295e-05
2.46406e-05
2.42591e-05
2.37878e-05
1.79699e-05
1.73502e-05
1.68153e-05
1.82464e-05
1.70599e-05
1.71821e-05
2.38226e-05
2.47658e-05
2.55965e-05
2.60985e-05
2.5826e-05
2.32201e-05
2.44721e-05
2.31041e-05
2.13707e-05
1.94017e-05
1.7664e-05
1.59032e-05
1.35882e-05
1.19322e-05
1.08035e-05
9.93453e-06
8.88586e-06
7.35325e-06
3.15668e-14
7.76309e-08
1.87024e-06
1.17927e-06
3.15507e-07
4.62879e-08
6.5877e-08
2.46945e-10
3.14356e-12
4.85757e-13
5.01808e-14
1.79767e-11
2.58291e-09
5.22434e-09
2.91095e-09
5.05689e-09
3.66952e-08
1.97528e-07
7.54308e-07
3.17802e-06
1.41509e-05
1.22548e-05
3.07165e-05
7.42971e-06
1.63399e-05
1.41656e-05
1.43334e-05
1.43539e-05
1.52732e-05
1.72828e-05
4.74216e-06
2.20082e-05
2.34978e-05
2.41097e-05
2.41924e-05
1.28569e-05
2.44174e-05
2.44925e-05
2.41e-05
2.4067e-05
2.45081e-05
2.53127e-05
2.51532e-05
2.31328e-05
1.95267e-05
1.47999e-05
1.22966e-05
1.06551e-05
9.67315e-06
8.78457e-06
7.88842e-06
7.27271e-06
6.31146e-08
5.96067e-06
5.96338e-06
5.94732e-06
5.95256e-06
6.9518e-06
7.68166e-06
9.57049e-06
1.0578e-05
7.74433e-06
1.48956e-05
1.53285e-05
1.38621e-05
1.50231e-05
1.60507e-05
1.66341e-05
1.7e-05
1.89971e-05
1.92295e-05
2.46955e-05
2.48894e-05
2.48334e-05
2.00202e-05
2.40819e-05
2.35848e-05
1.75589e-05
1.70467e-05
1.85396e-05
1.72497e-05
1.74873e-05
2.41129e-05
2.4944e-05
2.16067e-05
2.60516e-05
2.57117e-05
2.52393e-05
2.42493e-05
2.29166e-05
2.12132e-05
1.92367e-05
1.74589e-05
1.5601e-05
1.34439e-05
1.18262e-05
1.07069e-05
9.84417e-06
8.71905e-06
7.28744e-06
2.48619e-15
5.38603e-09
5.18891e-07
4.69366e-07
1.84198e-08
7.87128e-10
1.1408e-10
4.73553e-12
6.26603e-13
2.22934e-12
1.201e-13
1.2821e-10
2.08603e-07
1.58123e-07
2.87649e-08
2.02698e-08
6.4668e-08
7.15603e-07
1.33355e-06
6.97271e-06
1.94735e-05
3.569e-05
3.25048e-05
2.12398e-05
1.33111e-06
7.23538e-07
1.38605e-05
1.41969e-05
1.40031e-06
1.60813e-05
1.76754e-05
1.9396e-05
2.00848e-05
2.11529e-05
2.24426e-05
2.23571e-05
9.28634e-06
2.29497e-05
2.22387e-05
9.58859e-06
2.35952e-05
2.40662e-05
2.31797e-05
2.09347e-05
1.76378e-05
1.40735e-05
1.17813e-05
1.04612e-05
9.58421e-06
8.85767e-06
8.34405e-06
7.54999e-06
7.13867e-06
6.87132e-06
1.47703e-07
6.91105e-06
6.93483e-06
7.49536e-06
8.67511e-06
1.07997e-05
6.1906e-06
1.16566e-05
1.66684e-05
1.25138e-05
1.70947e-05
1.56938e-05
1.66202e-05
1.71928e-05
1.88834e-05
1.81245e-05
2.42052e-05
2.49629e-05
2.51213e-05
2.50149e-05
2.46764e-05
2.43498e-05
2.38473e-05
1.77928e-05
1.88297e-05
1.73329e-05
1.8928e-05
1.90173e-05
2.43796e-05
2.51043e-05
2.16684e-05
2.59939e-05
2.55784e-05
2.50183e-05
2.401e-05
2.27043e-05
2.10317e-05
1.90545e-05
1.71976e-05
1.5317e-05
1.32876e-05
1.17075e-05
1.05985e-05
9.74374e-06
8.56998e-06
7.21592e-06
9.06346e-17
1.07037e-10
1.04474e-08
5.18242e-08
2.38217e-10
5.01982e-12
1.51239e-11
5.4887e-13
4.35526e-14
3.24667e-13
2.93188e-10
6.30467e-10
1.72066e-06
2.35546e-06
4.51063e-07
2.36866e-07
4.25383e-07
1.96292e-06
5.11392e-06
1.17022e-05
1.68539e-05
3.61943e-05
3.17002e-05
2.11658e-05
1.56807e-05
9.38109e-07
1.37751e-05
1.40033e-05
1.41255e-05
1.52024e-05
1.62402e-05
1.66887e-05
1.53861e-05
1.92231e-06
3.43718e-06
1.96906e-05
2.03562e-05
2.03601e-05
2.06163e-05
2.11903e-05
2.18067e-05
2.19303e-05
2.07065e-05
1.83149e-05
1.59105e-05
1.32946e-05
1.13392e-05
1.02346e-05
9.48097e-06
8.94991e-06
8.58576e-06
8.30871e-06
7.58861e-06
7.2742e-06
7.30894e-06
7.36826e-06
2.95235e-07
9.24021e-07
1.07152e-05
1.21318e-05
1.31089e-05
1.64589e-05
1.62411e-05
1.42842e-05
1.48729e-05
1.70362e-05
1.71583e-05
1.77306e-05
1.90593e-05
2.39831e-05
2.46407e-05
2.51988e-05
2.52695e-05
2.51736e-05
2.48896e-05
2.458e-05
1.96246e-05
1.91652e-05
1.75996e-05
1.76741e-05
1.78087e-05
2.354e-05
2.46e-05
2.52426e-05
2.56849e-05
2.57306e-05
2.54261e-05
2.47861e-05
2.37561e-05
2.24716e-05
2.08289e-05
1.88575e-05
1.69295e-05
1.50409e-05
1.31076e-05
1.15772e-05
1.04787e-05
9.63306e-06
8.43468e-06
7.13847e-06
3.6453e-18
7.76232e-12
2.34201e-09
1.59856e-09
2.86469e-12
5.94757e-13
5.50755e-13
7.00329e-14
9.71083e-14
2.56829e-11
2.83417e-10
6.5872e-09
6.28191e-06
1.24223e-05
2.13929e-06
6.91094e-07
2.5933e-07
3.02238e-06
1.22138e-05
2.41501e-05
3.35839e-05
3.58126e-05
2.90413e-05
2.04759e-05
1.58988e-05
1.40902e-05
1.34486e-05
1.36728e-05
1.39061e-05
1.39483e-05
1.44357e-05
1.47105e-05
1.40846e-05
1.46466e-05
1.57765e-05
1.82324e-06
1.65392e-05
2.28093e-06
1.76695e-05
3.61984e-06
1.88209e-05
1.92879e-05
1.80914e-05
1.58597e-05
1.40924e-05
1.23508e-05
1.0901e-05
1.01402e-05
4.34052e-07
9.11483e-06
8.94916e-06
8.79909e-06
8.69106e-06
7.78508e-06
3.70908e-07
8.09753e-06
1.05478e-06
1.05442e-05
1.20773e-05
1.342e-05
1.59094e-05
1.6075e-05
1.60894e-05
1.76765e-05
1.60732e-05
1.71193e-05
1.76589e-05
1.8193e-05
2.37629e-05
1.99344e-05
2.49832e-05
2.53174e-05
2.5369e-05
2.52691e-05
2.50689e-05
2.47675e-05
2.43639e-05
2.37411e-05
1.78934e-05
1.90923e-05
2.35225e-05
2.39663e-05
2.48002e-05
2.53255e-05
2.57104e-05
2.56296e-05
2.52563e-05
2.45396e-05
2.3493e-05
2.05507e-05
2.0607e-05
1.86446e-05
1.66546e-05
1.47677e-05
1.29113e-05
1.14364e-05
1.03477e-05
9.51401e-06
8.27095e-06
7.05621e-06
2.36607e-16
9.16114e-14
1.53108e-11
2.03305e-11
3.67624e-12
4.84349e-13
1.88607e-11
2.5698e-11
8.43867e-11
2.13172e-10
1.06386e-09
1.37507e-07
5.36819e-06
1.44376e-05
5.02659e-06
1.17901e-06
1.18789e-06
3.73695e-06
2.24062e-05
1.37217e-05
3.6604e-05
3.34407e-05
1.03228e-05
1.89683e-05
1.57669e-05
1.0156e-06
7.06621e-07
1.32322e-05
1.29528e-05
8.94849e-07
1.31651e-05
1.32367e-05
1.3096e-05
1.33543e-05
1.3816e-05
1.4184e-05
1.43365e-05
1.42342e-05
1.94544e-06
1.5473e-05
1.59859e-05
1.61747e-05
1.5281e-05
1.35706e-05
1.23031e-05
1.14676e-05
1.10894e-05
1.03746e-05
1.00417e-05
9.46255e-06
6.05339e-07
6.1943e-07
6.17391e-07
9.27968e-06
9.65635e-06
1.01185e-05
1.07805e-05
1.19949e-05
1.33988e-05
1.61476e-05
1.79688e-05
1.26729e-05
1.47178e-05
1.56025e-05
1.67022e-05
1.76417e-05
1.9111e-05
1.94678e-05
2.42418e-05
2.47202e-05
2.51656e-05
2.53941e-05
2.54292e-05
2.5339e-05
2.51637e-05
2.49342e-05
2.45837e-05
2.40869e-05
2.3503e-05
2.36865e-05
2.3893e-05
2.43131e-05
2.49808e-05
2.53914e-05
2.56557e-05
2.5507e-05
2.50684e-05
2.42724e-05
2.32177e-05
2.18467e-05
2.03627e-05
1.68288e-05
1.63722e-05
1.44927e-05
1.27052e-05
1.1286e-05
1.02065e-05
9.38719e-06
8.12436e-06
6.96874e-06
7.2848e-16
3.83002e-15
1.16201e-13
9.70524e-12
1.58426e-10
6.61156e-11
1.27508e-09
1.92528e-09
2.96248e-08
1.14715e-07
2.04399e-07
6.85254e-07
6.34978e-06
3.25797e-05
5.6043e-06
1.63131e-06
1.9273e-06
5.33957e-06
2.16968e-05
3.62239e-05
3.73423e-05
2.96047e-05
5.99942e-06
1.74441e-05
1.5451e-05
1.50003e-06
1.35178e-05
1.3391e-05
5.42638e-07
1.23227e-05
6.26174e-07
1.26524e-05
1.27444e-05
1.27903e-05
1.29225e-05
1.29752e-05
1.3074e-05
1.30235e-05
1.30753e-05
1.31621e-05
1.35377e-06
1.70863e-06
1.29935e-05
1.20636e-05
8.76289e-07
1.08651e-05
1.106e-05
1.05635e-06
1.07169e-05
1.02191e-05
1.14548e-06
1.04394e-05
1.05429e-05
1.05818e-05
2.26742e-06
3.61488e-06
1.22259e-05
8.20349e-06
1.58871e-05
1.83616e-05
1.74111e-05
1.35804e-05
1.52949e-05
1.62536e-05
1.83996e-05
1.80422e-05
1.93253e-05
2.41031e-05
2.45244e-05
2.49024e-05
2.5244e-05
2.54148e-05
2.54393e-05
2.5376e-05
2.52286e-05
2.50315e-05
2.47525e-05
2.436e-05
1.93683e-05
2.40483e-05
2.42238e-05
2.02236e-05
2.51195e-05
2.54286e-05
2.55726e-05
2.53398e-05
2.48514e-05
2.399e-05
2.29296e-05
2.14721e-05
1.84785e-05
1.8092e-05
1.60772e-05
1.42146e-05
1.24891e-05
1.11262e-05
1.00563e-05
9.21491e-06
7.98041e-06
6.87732e-06
2.6029e-15
3.25988e-14
2.5758e-12
8.67928e-11
9.27262e-08
7.16288e-08
9.50071e-08
1.13978e-07
3.13089e-07
2.87609e-06
1.97543e-06
2.25412e-06
9.05273e-06
2.283e-05
4.2291e-06
2.62251e-06
3.90299e-06
7.27681e-06
1.84179e-05
1.38165e-05
3.55517e-05
1.06851e-05
1.78331e-05
1.71461e-05
1.54866e-05
1.41574e-05
1.3344e-05
1.32791e-05
1.29352e-05
1.26215e-05
1.21261e-05
1.24565e-05
1.22278e-05
5.59826e-07
1.21848e-05
1.21853e-05
1.2036e-05
1.18831e-05
7.80879e-07
1.22257e-05
1.23093e-05
1.22909e-05
1.18522e-05
1.09093e-05
7.25262e-07
1.08187e-05
1.12141e-05
1.15328e-05
1.19115e-05
1.14018e-05
1.18892e-05
1.19841e-05
1.24022e-05
3.98194e-06
4.57541e-06
1.2964e-05
1.36293e-05
1.31546e-05
1.82888e-05
1.76901e-05
1.48011e-05
1.52667e-05
1.56836e-05
1.68463e-05
1.77012e-05
2.31201e-05
2.36708e-05
2.41946e-05
2.458e-05
2.49498e-05
2.52155e-05
2.53351e-05
2.53609e-05
2.5339e-05
2.52576e-05
2.50913e-05
2.48788e-05
2.45715e-05
2.41498e-05
2.43337e-05
2.4476e-05
2.4789e-05
2.51949e-05
2.16108e-05
2.52678e-05
2.26225e-05
2.24714e-05
2.36922e-05
2.26292e-05
2.10922e-05
1.96787e-05
1.77564e-05
1.57726e-05
1.39348e-05
1.2265e-05
1.09579e-05
9.89819e-06
9.04171e-06
7.83771e-06
6.78399e-06
2.30102e-11
7.89964e-11
8.07596e-10
1.0009e-08
1.67088e-05
2.1086e-06
5.97371e-07
3.6307e-06
5.61139e-06
8.01577e-06
5.61657e-06
4.63525e-06
1.05126e-05
1.80692e-05
7.80208e-06
4.69795e-06
8.05428e-06
1.36256e-05
3.26965e-05
1.36045e-05
3.24101e-05
2.40391e-05
6.33826e-06
1.71582e-05
1.54507e-05
1.39045e-05
1.3379e-06
1.35518e-05
1.32424e-05
1.30704e-05
1.24236e-05
1.22141e-05
7.24773e-07
1.20452e-05
6.17279e-07
1.14759e-05
1.12669e-05
4.15996e-07
6.03366e-07
1.15737e-05
1.15428e-05
1.11893e-05
1.07937e-05
1.03553e-05
1.08839e-05
1.13889e-05
1.22272e-05
1.28969e-05
1.26725e-05
4.86516e-06
1.24633e-05
1.36529e-05
1.3915e-05
1.4039e-05
1.48658e-05
1.22587e-05
1.66456e-05
1.78584e-05
1.77138e-05
1.39063e-05
1.82625e-05
1.59446e-05
1.6597e-05
1.73325e-05
2.2575e-05
2.32368e-05
2.36817e-05
2.41166e-05
2.07753e-05
2.48612e-05
2.48987e-05
2.50112e-05
2.50464e-05
2.52455e-05
2.52185e-05
2.51119e-05
2.49281e-05
2.47307e-05
2.00386e-05
2.45549e-05
2.46892e-05
2.49669e-05
2.52402e-05
2.53972e-05
2.5116e-05
2.48819e-05
2.42417e-05
2.33197e-05
2.2318e-05
2.07046e-05
1.76917e-05
1.74094e-05
1.54571e-05
1.36501e-05
1.20377e-05
1.07717e-05
9.73289e-06
8.8667e-06
7.696e-06
6.68527e-06
1.75689e-06
5.04611e-08
9.09261e-08
9.10582e-07
2.78905e-05
4.08407e-06
8.1115e-06
1.4044e-05
1.20558e-05
1.51324e-05
1.57561e-05
1.33601e-05
1.7781e-05
1.98763e-05
1.17015e-05
5.94868e-06
1.36705e-05
2.20143e-05
3.49218e-05
4.04208e-05
1.64474e-05
1.24683e-05
2.10537e-05
6.14934e-06
3.31763e-06
1.74266e-06
1.89783e-06
1.40066e-05
1.37901e-05
1.32103e-05
1.09982e-06
9.63435e-07
1.2735e-05
1.26169e-05
1.20413e-05
5.23439e-07
5.03133e-07
1.12402e-05
1.13206e-05
6.63028e-07
1.07617e-05
1.02943e-05
5.50452e-07
1.06006e-05
1.39687e-06
1.24184e-05
4.49946e-06
1.47989e-05
1.49649e-05
1.04565e-05
1.51639e-05
1.52074e-05
1.58709e-05
1.64136e-05
1.75072e-05
1.79352e-05
1.78585e-05
1.73029e-05
1.40476e-05
1.85614e-05
1.61054e-05
1.73064e-05
1.72104e-05
2.20771e-05
2.27796e-05
2.31547e-05
2.34809e-05
2.38557e-05
2.4056e-05
2.44433e-05
2.46687e-05
2.47519e-05
2.48144e-05
2.48759e-05
2.20307e-05
2.50689e-05
2.49444e-05
2.06353e-05
2.46702e-05
2.04934e-05
2.4874e-05
2.50562e-05
2.52457e-05
2.52645e-05
2.48616e-05
2.22927e-05
2.38214e-05
2.28399e-05
2.19024e-05
1.86397e-05
1.87067e-05
1.69915e-05
1.50742e-05
1.33041e-05
1.17582e-05
1.05124e-05
9.52617e-06
8.6573e-06
7.52614e-06
6.56309e-06
1.69151e-05
1.52948e-06
1.34602e-06
4.09107e-06
1.38831e-05
9.33979e-06
2.12714e-05
3.64357e-05
2.94386e-05
2.75399e-05
2.19505e-05
2.1119e-05
2.21892e-05
2.52514e-05
1.49976e-05
1.72084e-05
2.22409e-05
2.06242e-05
1.75574e-05
3.89184e-05
3.27645e-05
2.74774e-05
2.29327e-05
1.81418e-05
3.60625e-06
3.3524e-06
3.50154e-06
1.48513e-05
3.79193e-06
1.45212e-05
1.38211e-05
1.3851e-05
1.35679e-05
1.31746e-05
1.28435e-05
1.26319e-05
1.23235e-05
1.18639e-05
6.72786e-07
1.06197e-05
5.55398e-07
4.13904e-07
6.02901e-07
1.07253e-05
1.24019e-05
1.42036e-05
1.67052e-05
1.8676e-05
1.88931e-05
1.80297e-05
1.68818e-05
1.69046e-05
1.71053e-05
1.74475e-05
1.68922e-05
1.67073e-05
1.4725e-05
1.54461e-05
1.59901e-05
1.69693e-05
1.78404e-05
1.83495e-05
2.16996e-05
2.23e-05
2.26875e-05
2.28044e-05
2.2811e-05
2.31537e-05
2.35791e-05
2.40334e-05
2.4256e-05
2.43493e-05
2.4422e-05
2.45391e-05
2.46667e-05
2.49071e-05
2.4878e-05
2.47958e-05
2.47517e-05
2.48319e-05
2.4937e-05
2.50827e-05
2.51496e-05
2.48467e-05
2.44778e-05
2.40923e-05
2.33086e-05
2.22679e-05
2.12876e-05
1.96225e-05
1.80636e-05
1.64147e-05
1.46187e-05
1.28932e-05
1.14245e-05
1.0197e-05
9.27525e-06
8.42748e-06
7.32791e-06
6.41233e-06
5.09929e-05
3.38031e-06
6.05668e-06
6.20352e-06
9.14381e-06
1.22839e-05
2.84825e-05
3.73997e-05
3.58421e-05
3.90989e-05
1.80601e-05
4.06803e-05
3.68537e-05
2.35809e-05
1.96158e-05
2.05863e-05
3.23664e-05
3.81714e-05
1.39094e-05
3.25821e-05
1.50617e-05
2.75509e-05
2.39663e-05
1.87864e-05
6.07052e-06
1.6338e-05
1.6716e-05
1.67829e-05
6.87147e-06
1.57603e-05
4.4615e-06
3.84256e-06
1.47827e-05
1.35617e-05
2.37847e-06
1.34989e-05
1.29945e-05
1.22639e-05
1.1153e-05
7.54941e-07
1.09024e-05
1.0923e-05
1.09443e-05
2.02404e-06
1.41628e-05
1.74507e-05
2.01675e-05
1.88891e-05
1.69405e-05
1.5974e-05
1.56944e-05
1.49945e-05
1.54344e-05
1.51651e-05
1.56749e-05
1.52879e-05
1.54169e-05
1.67725e-05
1.68709e-05
1.71412e-05
1.73065e-05
2.13252e-05
2.16407e-05
2.20943e-05
1.97279e-05
2.19996e-05
2.2175e-05
2.25584e-05
2.09105e-05
2.13969e-05
2.37671e-05
2.3862e-05
2.39831e-05
2.41288e-05
2.42794e-05
2.44546e-05
2.46755e-05
2.46584e-05
2.47093e-05
2.48055e-05
2.49101e-05
2.50138e-05
2.18319e-05
2.45107e-05
2.40497e-05
2.34898e-05
2.27582e-05
2.1677e-05
2.06211e-05
1.7492e-05
1.74121e-05
1.5851e-05
1.41478e-05
1.24739e-05
1.10788e-05
9.86922e-06
8.97049e-06
8.19747e-06
7.12975e-06
6.25329e-06
6.3874e-05
1.75093e-05
1.22092e-05
9.52177e-06
9.94271e-06
1.61689e-05
2.94038e-05
3.85953e-05
3.89743e-05
4.36737e-05
4.35539e-05
4.23596e-05
4.23329e-05
4.04027e-05
2.29675e-05
3.71705e-05
3.83856e-05
1.32545e-05
3.72935e-05
3.39534e-05
2.99145e-05
1.28716e-05
1.13345e-05
9.96881e-06
8.55681e-06
1.837e-05
1.86466e-05
1.96051e-05
2.06126e-05
1.94171e-05
9.44995e-06
1.88753e-05
1.75204e-05
5.60715e-06
1.58577e-05
1.49341e-05
3.58393e-06
1.29353e-05
1.20115e-05
1.15251e-05
1.14686e-05
1.73015e-06
1.30329e-05
1.47575e-05
1.01935e-05
1.78891e-05
1.84545e-05
1.75338e-05
1.76805e-05
1.75805e-05
1.7201e-05
1.7492e-05
1.72842e-05
1.66519e-05
1.67488e-05
1.67741e-05
1.6854e-05
1.71589e-05
1.73327e-05
2.10984e-05
2.10217e-05
1.84733e-05
2.11794e-05
1.92358e-05
2.13485e-05
2.12364e-05
2.13729e-05
2.17693e-05
2.22419e-05
2.27781e-05
2.12819e-05
2.32427e-05
2.33617e-05
2.36099e-05
2.3847e-05
2.40619e-05
2.41724e-05
2.41869e-05
2.44938e-05
2.12537e-05
2.47328e-05
2.48008e-05
2.44483e-05
2.40723e-05
2.35323e-05
2.28732e-05
2.20949e-05
2.10552e-05
1.99394e-05
1.83016e-05
1.67598e-05
1.52914e-05
1.36191e-05
1.2048e-05
1.07165e-05
9.52865e-06
8.66069e-06
7.96174e-06
6.92847e-06
6.08856e-06
6.84138e-05
4.25391e-05
2.84098e-05
1.81394e-05
2.03797e-05
3.18216e-05
3.84257e-05
3.80307e-05
4.11417e-05
5.27751e-05
4.32908e-05
1.92731e-05
4.0982e-05
1.5884e-05
4.03556e-05
3.86096e-05
3.69071e-05
3.53558e-05
3.44512e-05
3.37332e-05
3.12447e-05
1.04213e-05
2.78195e-05
2.43398e-05
2.17708e-05
2.07117e-05
1.95622e-05
1.25487e-05
2.44028e-05
1.44108e-05
2.39775e-05
2.37136e-05
1.42964e-05
2.04711e-05
1.04647e-05
1.6701e-05
1.4288e-05
1.31791e-05
1.26766e-05
1.2608e-05
1.28202e-05
1.401e-05
1.60657e-05
1.11432e-05
2.19945e-05
1.87269e-05
2.3343e-05
2.37493e-05
2.37274e-05
2.3468e-05
1.90596e-05
1.87814e-05
1.87186e-05
1.75254e-05
1.85133e-05
1.74135e-05
2.12556e-05
1.8527e-05
2.1086e-05
2.08218e-05
2.05338e-05
2.02145e-05
2.02318e-05
2.04819e-05
2.04323e-05
2.03543e-05
2.04775e-05
2.08998e-05
2.13958e-05
2.19567e-05
2.23851e-05
2.26114e-05
2.27238e-05
2.29864e-05
2.32786e-05
2.36196e-05
2.14456e-05
2.38039e-05
2.39523e-05
2.41065e-05
2.42221e-05
2.42748e-05
2.15638e-05
2.35566e-05
2.2908e-05
2.22373e-05
2.14236e-05
2.03558e-05
1.92477e-05
1.76089e-05
1.61064e-05
1.47363e-05
1.30883e-05
1.15864e-05
1.03386e-05
9.17688e-06
8.35179e-06
7.67265e-06
6.72041e-06
5.91916e-06
6.97254e-05
5.71886e-05
4.46417e-05
3.59491e-05
3.96081e-05
4.84893e-05
5.21963e-05
4.95919e-05
4.46303e-05
4.77548e-05
5.65584e-05
3.69014e-05
3.29643e-05
3.36064e-05
3.4815e-05
2.96719e-05
2.79061e-05
1.38872e-05
3.00558e-05
3.2111e-05
3.25645e-05
3.29986e-05
3.13545e-05
2.79162e-05
2.496e-05
1.2056e-05
2.40301e-05
2.68099e-05
2.9135e-05
2.91909e-05
2.93563e-05
2.82374e-05
2.67018e-05
2.50248e-05
2.23381e-05
1.85576e-05
1.57625e-05
6.80585e-06
1.37961e-05
1.36895e-05
1.45123e-05
1.70019e-05
1.25527e-05
2.32691e-05
2.00152e-05
2.37911e-05
2.05392e-05
2.40074e-05
2.38283e-05
2.35991e-05
2.32554e-05
2.27962e-05
2.24524e-05
2.21777e-05
2.18063e-05
2.14191e-05
2.11297e-05
2.08706e-05
2.06017e-05
2.00046e-05
1.95725e-05
1.93334e-05
1.92876e-05
1.94353e-05
1.8041e-05
1.93192e-05
1.95215e-05
1.99771e-05
2.04799e-05
2.10368e-05
2.14972e-05
2.17401e-05
2.19513e-05
2.23339e-05
2.26457e-05
2.30308e-05
2.32292e-05
2.33159e-05
2.34789e-05
2.36292e-05
2.37892e-05
2.38206e-05
2.3457e-05
2.2906e-05
2.22596e-05
2.14705e-05
2.06957e-05
1.81813e-05
1.8531e-05
1.69297e-05
1.54649e-05
1.41095e-05
1.25345e-05
1.11245e-05
9.89516e-06
8.8214e-06
8.03745e-06
7.38115e-06
6.49259e-06
5.7401e-06
6.99591e-05
6.37412e-05
5.36148e-05
4.87123e-05
4.9392e-05
4.89459e-05
4.79567e-05
5.05821e-05
4.79432e-05
4.5091e-05
4.8119e-05
3.84597e-05
2.98934e-05
7.74836e-06
2.88329e-05
1.12182e-05
1.20173e-05
2.80323e-05
1.31438e-05
3.19117e-05
1.11769e-05
3.51863e-05
3.42512e-05
3.07905e-05
9.83644e-06
9.96216e-06
2.79702e-05
2.24467e-05
3.39981e-05
3.53128e-05
3.50452e-05
3.10641e-05
2.69116e-05
2.85908e-05
2.52865e-05
2.04599e-05
1.0781e-05
1.60399e-05
1.57518e-05
9.33344e-06
1.78964e-05
1.44486e-05
2.40956e-05
2.42891e-05
2.37931e-05
2.38383e-05
2.33665e-05
2.30727e-05
2.29296e-05
2.2804e-05
1.99396e-05
2.22639e-05
2.19524e-05
1.90909e-05
1.89542e-05
2.08133e-05
2.02123e-05
1.98621e-05
1.81496e-05
1.91113e-05
1.85797e-05
1.82954e-05
1.81965e-05
1.8291e-05
1.83225e-05
1.82576e-05
1.84753e-05
1.89606e-05
1.95154e-05
2.01398e-05
1.91149e-05
2.09059e-05
2.11453e-05
2.15327e-05
2.19602e-05
2.23555e-05
2.25673e-05
2.27889e-05
2.29907e-05
2.31093e-05
2.10091e-05
2.10284e-05
2.28204e-05
2.22307e-05
2.15974e-05
2.07615e-05
1.99403e-05
1.89171e-05
1.77565e-05
1.62481e-05
1.4826e-05
1.34866e-05
1.19899e-05
1.06578e-05
9.46467e-06
8.4767e-06
7.7176e-06
7.06152e-06
6.23553e-06
5.56938e-06
6.96082e-05
6.3874e-05
5.66868e-05
5.04687e-05
4.33298e-05
3.37692e-05
3.07725e-05
3.55746e-05
4.11404e-05
4.05777e-05
4.28207e-05
1.70326e-05
3.66934e-05
3.08738e-05
2.90523e-05
2.6119e-05
2.68371e-05
3.04386e-05
3.16484e-05
3.42766e-05
3.62038e-05
3.75148e-05
2.32186e-05
3.4524e-05
3.22074e-05
2.62675e-05
3.15523e-05
3.62131e-05
3.91428e-05
4.03316e-05
3.77744e-05
3.49797e-05
3.3864e-05
3.21944e-05
2.77254e-05
2.32042e-05
2.05407e-05
1.8501e-05
1.87527e-05
2.0872e-05
2.36325e-05
2.54267e-05
2.42699e-05
2.36072e-05
2.29217e-05
2.07442e-05
2.20477e-05
2.17137e-05
2.16656e-05
2.16804e-05
1.96289e-05
2.09212e-05
2.06553e-05
2.0518e-05
2.01064e-05
1.9579e-05
1.91574e-05
1.87333e-05
1.84075e-05
1.67714e-05
1.74159e-05
1.71674e-05
1.70621e-05
1.71469e-05
1.71461e-05
1.72111e-05
1.74589e-05
1.79716e-05
1.85453e-05
1.91247e-05
1.96618e-05
1.99858e-05
2.032e-05
2.07528e-05
2.11601e-05
2.16409e-05
2.19313e-05
2.21595e-05
2.23755e-05
2.25112e-05
2.26844e-05
2.06583e-05
2.2153e-05
2.15777e-05
2.0891e-05
2.00829e-05
1.92089e-05
1.81481e-05
1.70236e-05
1.55643e-05
1.41994e-05
1.28742e-05
1.14578e-05
1.01882e-05
9.04146e-06
8.1294e-06
7.39817e-06
6.74676e-06
5.97614e-06
5.36151e-06
6.86493e-05
6.1255e-05
5.01872e-05
4.00997e-05
2.98022e-05
1.89759e-05
1.5478e-05
1.92552e-05
2.72977e-05
3.25622e-05
3.46396e-05
4.09491e-05
4.14174e-05
3.78838e-05
3.28181e-05
3.08509e-05
1.20356e-05
1.7123e-05
3.46461e-05
2.36777e-05
3.80307e-05
3.89737e-05
3.88501e-05
3.82614e-05
3.76265e-05
3.87452e-05
3.87141e-05
3.59223e-05
3.45233e-05
3.3992e-05
3.32066e-05
3.42616e-05
3.45495e-05
3.3016e-05
2.99389e-05
2.59545e-05
2.34828e-05
1.7669e-05
2.42007e-05
1.95965e-05
2.57748e-05
2.46338e-05
2.3191e-05
2.07507e-05
2.1302e-05
2.05813e-05
1.89183e-05
1.9904e-05
1.86587e-05
2.0132e-05
1.8391e-05
1.93981e-05
1.92012e-05
1.90911e-05
1.75088e-05
1.82647e-05
1.78106e-05
1.73764e-05
1.6993e-05
1.66162e-05
1.62324e-05
1.60256e-05
1.5937e-05
1.49154e-05
1.59897e-05
1.61183e-05
1.63858e-05
1.69178e-05
1.75413e-05
1.81566e-05
1.87111e-05
1.90788e-05
1.94232e-05
1.99077e-05
2.03851e-05
2.08606e-05
2.12086e-05
2.15224e-05
2.17241e-05
2.1836e-05
2.19647e-05
2.19747e-05
1.97526e-05
2.08036e-05
2.01868e-05
1.93202e-05
1.84819e-05
1.74014e-05
1.63106e-05
1.4897e-05
1.35708e-05
1.22741e-05
1.09342e-05
9.72088e-06
8.64245e-06
7.77942e-06
7.07779e-06
6.43827e-06
5.73153e-06
5.14679e-06
6.68041e-05
5.38047e-05
3.74923e-05
2.71144e-05
1.6981e-05
9.44028e-06
7.16477e-06
8.89428e-06
1.57799e-05
2.27034e-05
2.65334e-05
3.15617e-05
3.86793e-05
4.36253e-05
3.78891e-05
2.44782e-05
3.41064e-05
3.49077e-05
2.71916e-05
3.718e-05
3.82044e-05
3.79804e-05
3.81344e-05
3.44853e-05
3.81684e-05
3.10841e-05
2.76773e-05
3.28875e-05
3.51423e-05
3.23741e-05
2.94209e-05
3.02857e-05
3.27421e-05
3.38803e-05
3.13927e-05
2.79059e-05
2.57148e-05
2.54673e-05
2.61182e-05
2.26681e-05
2.4639e-05
2.09599e-05
2.13049e-05
1.90276e-05
1.79987e-05
1.8084e-05
1.78119e-05
1.78316e-05
1.79933e-05
1.71243e-05
1.78547e-05
1.75818e-05
1.74888e-05
1.74292e-05
1.71579e-05
1.67347e-05
1.63196e-05
1.59306e-05
1.55796e-05
1.52755e-05
1.5078e-05
1.4911e-05
1.47776e-05
1.48829e-05
1.48553e-05