/*--------------------------------*- C++ -*----------------------------------*\
  =========                 |
  \\      /  F ield         | OpenFOAM: The Open Source CFD Toolbox
   \\    /   O peration     | Website:  https://openfoam.org
    \\  /    A nd           | Version:  6
     \\/     M anipulation  |
\*---------------------------------------------------------------------------*/
FoamFile
{
    version     2.0;
    format      ascii;
    class       volVectorField;
    location    "0.1";
    object      U;
}
// * * * * * * * * * * * * * * * * * * * * * * * * * * * * * * * * * * * * * //

dimensions      [0 1 -1 0 0 0 0];

internalField   nonuniform List<vector> 
8000
(
(69.845 0.483389 3.31208e-05)
(69.3632 0.432293 0.00422525)
(67.6007 0.859511 0.0230408)
(78.1353 0.807503 -0.0263822)
(81.3498 1.09564 -0.309749)
(71.6156 0.387464 -0.158651)
(68.1263 0.588097 -0.0432881)
(73.9063 0.968605 -0.00869368)
(73.275 0.903638 -0.00110908)
(69.3051 0.356614 7.9087e-05)
(67.2167 0.117161 0.000124212)
(65.2022 0.141494 0.000154631)
(62.6936 0.199182 0.000364069)
(63.0831 1.249 0.00123549)
(62.8272 1.36499 0.000901425)
(69.6957 1.45933 0.000642669)
(77.7317 -0.353025 0.0521879)
(71.3701 -1.0534 0.416769)
(68.9468 1.62562 0.0654636)
(69.5985 1.09897 0.0120926)
(69.9991 0.360356 0.00410592)
(68.2284 0.201608 0.00224565)
(67.8238 0.0224724 0.00179082)
(67.3277 0.0782197 0.00214717)
(67.7015 -0.0456771 0.00290152)
(67.112 -0.0120587 0.00333758)
(62.394 0.333622 0.00307749)
(61.0721 0.108163 0.00222582)
(62.2903 -0.416833 0.000982171)
(61.3044 -5.12502 -0.00904577)
(60.1719 -0.203461 -0.00745641)
(60.8875 0.00151771 -8.31986e-05)
(61.1404 -0.0172059 0.000544976)
(60.4525 -0.0177741 -0.000286715)
(59.8956 0.16577 -0.00146617)
(59.4349 0.187194 -0.00167565)
(59.6168 0.209098 -0.00133811)
(59.0686 0.208331 -0.00264954)
(57.9489 0.155633 -0.00271317)
(56.5053 0.267188 0.00803163)
(55.3119 0.20034 0.000610983)
(54.8012 0.167794 -0.000271926)
(53.7666 0.125748 -0.00014133)
(54.5309 0.203254 -8.56509e-05)
(54.777 -0.0839808 -0.00017747)
(52.2729 -0.107967 -0.00039054)
(52.8095 -0.247943 -0.000629193)
(53.9198 0.100408 -0.000719526)
(53.3499 0.00812505 6.70535e-05)
(57.3862 0.738912 -0.00581058)
(57.9761 -0.0236532 -0.0397212)
(54.6266 -0.051484 -0.00435842)
(54.049 -0.00488512 -0.000195566)
(55.9952 0.0720691 3.82326e-05)
(56.3145 -0.129543 -0.000210357)
(53.8651 -0.048207 -0.000416752)
(54.4289 -0.0732341 -0.000383159)
(53.3637 -0.0558378 -0.000261816)
(51.2909 0.0225325 -0.00018519)
(50.1624 0.0780582 -0.000391288)
(49.2746 -0.0655111 -0.000678791)
(48.1638 0.142984 -0.000591871)
(46.1576 0.109235 -0.000542483)
(45.4068 0.076908 -0.00073164)
(44.3005 0.0941567 -0.00076951)
(42.7211 0.064943 -0.000223176)
(41.616 0.0302916 -0.000498504)
(40.6222 0.0187973 -0.00450865)
(39.6243 0.0420083 -0.00201563)
(38.5846 0.0210613 0.000521266)
(37.8413 0.109964 0.00472047)
(37.341 0.0564598 -4.31926e-05)
(36.7876 0.0215227 -0.0015369)
(35.9511 0.0143611 -0.000516357)
(34.9816 -0.426342 -0.000800606)
(34.3555 -0.0322028 0.000734708)
(33.7663 -0.0761491 0.000450416)
(33.4945 0.218008 0.000353074)
(32.7465 -0.0230936 0.000526651)
(31.4948 0.0588091 0.00234617)
(30.3671 0.0116673 6.25097e-05)
(29.2449 0.0131076 -0.00070173)
(27.845 -0.0190524 -0.0013508)
(26.8115 0.0262722 -0.000444899)
(25.686 0.0239757 0.000339574)
(24.0919 0.0248538 -7.82108e-05)
(22.4232 0.00974652 -0.000394779)
(20.2696 0.00885041 -0.000390732)
(20.3678 -0.0484488 0.000263175)
(19.5827 0.161795 -1.83131e-05)
(17.7423 0.0323562 5.37238e-05)
(17.0173 0.015783 3.0036e-05)
(16.0454 0.00536252 -0.000150768)
(15.3824 0.00578197 -0.000417081)
(14.6328 0.00581721 -5.51094e-05)
(13.9738 0.00390097 -7.17077e-06)
(13.3776 0.00288835 1.51652e-05)
(12.7424 0.00230239 0.000166252)
(12.3827 0.00326928 0.00243507)
(11.7884 -0.000329994 0.000127877)
(69.755 1.01782 7.06802e-05)
(69.4083 1.29425 0.0161399)
(66.6144 2.42439 0.0748668)
(77.2479 2.87076 -0.0241368)
(79.6753 -4.16279 -0.741394)
(70.685 0.363304 -0.381576)
(68.0002 1.10736 -0.105262)
(73.9402 2.48817 -0.0242664)
(73.2277 2.34469 -0.00363789)
(69.213 0.743094 -7.31203e-05)
(67.1439 0.274088 0.000321452)
(65.1123 0.312254 0.000446639)
(62.4431 0.725683 0.00102531)
(63.7627 3.05128 0.00477272)
(59.6948 3.40255 0.00347243)
(68.8304 4.06414 0.00174125)
(74.8887 0.851803 0.0272069)
(71.1145 1.75524 0.0650466)
(68.9363 4.12995 0.014028)
(69.4089 3.37988 -0.00406512)
(70.0447 1.29673 0.00278731)
(68.2912 0.577204 0.00448148)
(67.9276 0.0731921 0.00459835)
(67.4792 0.194876 0.00577032)
(67.8923 -0.124741 0.00783001)
(67.4032 -0.0289987 0.00924025)
(62.4229 0.874838 0.0085298)
(60.826 0.236888 0.00608034)
(61.8125 -0.611673 0.00278874)
(61.0848 -6.26109 -0.00430201)
(60.1226 -0.432875 -0.0012389)
(60.8335 -0.091612 0.00122089)
(61.0714 -0.0463084 0.0017458)
(60.3463 -0.0376805 -0.000875584)
(59.833 0.409297 -0.00440406)
(59.3671 0.442642 -0.00465999)
(59.5588 0.510244 -0.00376966)
(58.9791 0.502759 -0.00660183)
(57.8496 0.288386 -0.00680521)
(57.1113 0.652193 0.0787387)
(55.2871 0.544346 0.00560089)
(54.6385 0.414651 -0.000419024)
(53.5824 0.315669 -0.00033827)
(54.4091 0.455372 -0.000242949)
(54.7067 -0.176783 -0.000502003)
(52.1335 -0.255378 -0.00108002)
(52.6862 -0.609965 -0.00171737)
(53.7709 0.243569 -0.00197614)
(53.0732 -0.0223909 -3.70612e-05)
(56.7615 1.01933 -0.00228958)
(57.2123 -0.119939 -0.00545486)
(54.2623 -0.13998 -0.000390971)
(53.8731 -0.0145767 0.000286912)
(55.8968 0.137049 4.44394e-05)
(56.2217 -0.26935 -0.000653392)
(53.699 -0.112838 -0.00118344)
(54.2583 -0.171361 -0.000973886)
(53.162 -0.108614 -0.000629623)
(51.0186 0.0526074 -0.000470164)
(49.8733 0.212769 -0.00112109)
(49.0644 -0.117545 -0.0020084)
(48.0918 0.37315 -0.00172673)
(46.1017 0.276677 -0.00155219)
(45.2208 0.239566 -0.00209621)
(44.0538 0.220836 -0.00221466)
(42.6715 0.161188 -0.000647874)
(41.5539 0.0795095 -0.00135612)
(40.5046 0.0601137 -0.0124877)
(39.5079 0.101715 -0.0055295)
(38.5469 0.0686793 0.00146593)
(37.7383 0.188605 0.00426164)
(37.1965 0.126535 -0.000169397)
(36.6935 0.061831 -0.00427328)
(35.8304 0.0442199 -0.00143288)
(34.8217 -0.49893 -0.00237803)
(34.2428 -0.0744557 0.00204935)
(33.8227 -0.214913 0.00126184)
(33.503 0.508937 0.000987045)
(32.5591 -0.0415479 0.00143806)
(31.4511 0.157468 0.00675856)
(30.3794 0.033913 0.000164049)
(29.1435 0.0369728 -0.00198049)
(27.7057 -0.0405893 -0.00374158)
(26.7125 0.065778 -0.00135557)
(25.6241 0.0683235 0.000964953)
(24.023 0.0701798 -0.000224259)
(22.3673 0.0290974 -0.0011152)
(20.178 0.0316457 -0.00110886)
(20.4584 -0.185841 0.000134933)
(19.5975 0.416523 -4.79827e-05)
(17.5465 0.0787896 0.000154122)
(16.9998 0.039546 8.89681e-05)
(15.9993 0.0143158 -0.000428092)
(15.312 0.0213309 -0.00118583)
(14.585 0.0168118 -0.000155671)
(13.9337 0.0102438 -2.04157e-05)
(13.3368 0.00767308 4.29023e-05)
(12.7 0.00377765 0.00047041)
(12.3439 0.0130814 0.00692189)
(11.752 0.0013899 0.000355008)
(69.319 1.79189 -4.75576e-05)
(69.3504 2.70152 0.0773677)
(65.4641 4.41295 0.256192)
(74.8337 5.16311 0.273297)
(78.9889 -4.47575 -0.213541)
(71.6293 1.16407 -0.139477)
(68.8347 2.32058 -0.033849)
(74.4971 3.76787 -0.0437783)
(74.0556 3.10359 -0.000150583)
(69.0398 1.08563 0.000359224)
(67.2557 0.958504 0.002295)
(64.9374 0.394955 0.000992304)
(62.2868 1.16638 0.00149585)
(66.2153 2.78634 0.0136317)
(52.7877 3.41165 0.0127049)
(66.8928 6.17575 0.00429348)
(73.4387 2.30021 0.0102266)
(70.4264 3.51433 0.0215289)
(68.788 2.79037 -0.0549537)
(68.6637 3.17513 -0.160036)
(69.8783 2.47426 -0.0243868)
(68.2032 0.869531 0.00108388)
(67.9056 0.047944 0.00539571)
(67.4568 0.279243 0.0077062)
(67.8313 -0.257926 0.0106251)
(67.3538 -0.0321355 0.0139964)
(62.3968 1.53174 0.0127567)
(60.6436 0.378131 0.00848488)
(61.4235 -0.570336 0.00410264)
(60.8707 -3.7113 0.000864985)
(60.1536 -0.46913 0.00199068)
(60.6657 -0.276928 0.00319991)
(60.8691 -0.101539 0.00330281)
(60.158 -0.115846 -0.00182851)
(59.6954 0.574826 -0.00797144)
(59.2292 0.624951 -0.00361399)
(59.4243 0.753474 -0.00479514)
(58.757 0.734919 -0.00665409)
(57.3904 0.490248 -0.00800125)
(55.7426 1.12553 -0.000882633)
(54.6281 0.842343 -0.00217222)
(54.2152 0.631315 -0.00115907)
(53.2563 0.503369 -0.000502464)
(54.1325 0.686751 -0.000473831)
(54.4632 -0.264615 -0.000824625)
(51.9236 -0.414511 -0.00157401)
(52.5262 -0.98528 -0.00240395)
(53.5681 0.398302 -0.00281849)
(52.7456 -0.0565555 -0.000759721)
(56.2239 0.314224 0.00115592)
(56.7369 -0.625022 0.00121302)
(54.0151 -0.321108 -0.000686824)
(53.7142 -0.0263381 -0.000919255)
(55.6696 0.21935 -0.000607892)
(55.9546 -0.390151 -0.00137472)
(53.377 -0.173224 -0.00191427)
(53.8815 -0.266169 -0.000877909)
(52.7441 -0.164843 -0.000355839)
(50.5742 0.0661449 -0.00045493)
(49.4354 0.354481 -0.00191011)
(48.6912 -0.187185 -0.00380424)
(47.7935 0.605195 -0.00310332)
(45.8062 0.431826 -0.00262152)
(44.9664 0.394337 -0.00356898)
(43.8244 0.373115 -0.00381557)
(42.4752 0.25152 -0.0011252)
(41.3731 0.126085 -0.0019313)
(40.3292 0.0963406 -0.0191039)
(39.3355 0.150309 -0.0080448)
(38.3971 0.120476 0.00244505)
(37.588 0.116068 0.00441197)
(37.0393 0.148626 -0.00026039)
(36.5758 0.137878 -0.00664925)
(35.6808 0.0994348 -0.00217945)
(34.6617 -0.219767 -0.00443456)
(34.1147 -0.097939 0.00324665)
(33.7408 -0.329026 0.00199638)
(33.4483 0.780401 0.00155631)
(32.3931 -0.0731273 0.00211494)
(31.3712 0.325962 0.0116341)
(30.3176 0.0685076 0.000160989)
(29.0436 0.0647407 -0.00322471)
(27.5758 -0.0616591 -0.0057532)
(26.6092 0.0868316 -0.00264757)
(25.5877 0.147078 0.00161032)
(23.9639 0.12975 -0.000385638)
(22.2941 0.0455745 -0.00181821)
(20.0606 0.0621184 -0.001826)
(20.4537 -0.414021 3.81456e-05)
(19.5916 0.678503 -5.5945e-05)
(17.4324 0.116538 0.000262031)
(16.964 0.0521872 0.000163552)
(15.951 0.0204924 -0.000707473)
(15.2534 0.0690933 -0.00196602)
(14.5353 0.0357967 -0.000250199)
(13.8896 0.0162669 -3.35894e-05)
(13.2916 0.0123331 6.99984e-05)
(12.656 -0.00709017 0.000766251)
(12.308 0.0473654 0.0114708)
(11.7143 0.0150315 0.000533646)
(69.0424 2.8684 -0.000567723)
(69.1303 5.43538 0.01362)
(64.2598 8.3285 0.0912836)
(74.2663 8.12878 0.0877409)
(77.5457 0.00356382 -0.0239735)
(71.9606 2.91778 -0.0206003)
(68.9268 3.98395 0.00122357)
(72.9234 4.56397 -0.000229897)
(72.2389 3.9515 0.00057743)
(68.4116 2.2528 -0.000164355)
(66.5353 1.51081 -0.000817794)
(64.7064 0.580573 -0.00136253)
(62.6861 1.36393 -5.31862e-05)
(66.2361 0.823275 0.015092)
(46.2178 0.765714 0.0539425)
(64.45 9.74889 0.00797924)
(72.1895 5.26372 0.00519268)
(69.8957 4.71115 0.0113091)
(68.6905 2.36784 -0.0206554)
(68.9161 3.70489 -0.0269793)
(69.5038 3.46133 -0.00179433)
(67.8426 1.19205 0.0036834)
(67.7578 0.0727755 0.00484068)
(67.3173 0.333754 0.00697681)
(67.6611 -0.435048 0.00945072)
(66.9889 0.163163 0.0174754)
(62.331 2.50096 0.0142449)
(60.3824 0.601703 0.0075924)
(61.0851 -0.538512 0.00251053)
(60.661 -2.31666 0.00200911)
(60.0582 -0.291981 0.00352319)
(60.4327 -0.4046 0.00454403)
(60.5973 -0.157869 0.00457008)
(59.8912 -0.217321 -0.00208862)
(59.5024 0.544396 -0.00738204)
(59.2782 0.818008 0.0363696)
(59.2826 0.950262 0.00435777)
(58.5671 0.966259 -0.00603482)
(56.9947 0.848288 -0.00936951)
(55.1629 1.29594 -0.00645131)
(54.0815 0.976568 -0.003224)
(53.7696 0.767867 -0.00170493)
(52.8655 0.64877 -0.00116167)
(53.7627 0.906562 -0.00106225)
(54.1258 -0.357475 -0.0010576)
(51.6514 -0.586577 -0.0013746)
(52.3433 -1.37352 -0.00190213)
(53.344 0.55967 -0.00243629)
(52.4133 -0.080618 9.16037e-06)
(55.8 -0.0914549 0.0029227)
(56.3536 -0.969345 0.00230062)
(53.7703 -0.47336 -0.00240015)
(53.63 0.0955457 -0.00355711)
(55.3177 0.441878 -0.00143249)
(55.5384 -0.478941 -0.00207957)
(52.9071 -0.208106 -0.00227569)
(53.3551 -0.337205 0.00081669)
(52.1782 -0.228429 0.00120228)
(49.9868 0.0824568 7.58647e-05)
(48.8465 0.509682 -0.00272395)
(48.1851 -0.166949 -0.0064449)
(47.3707 0.852635 -0.00486421)
(45.38 0.582422 -0.00374939)
(44.6103 0.540728 -0.00518499)
(43.5139 0.53176 -0.00564049)
(42.18 0.350308 -0.00168839)
(41.1048 0.173916 -0.00203466)
(40.0901 0.147874 -0.0232252)
(39.1184 0.194579 -0.00858626)
(38.1764 0.145325 0.00351531)
(37.4037 0.170361 0.00526591)
(36.854 0.200959 -0.000202963)
(36.3742 0.207833 -0.00598246)
(35.4912 0.149391 -0.00262628)
(34.478 -0.104817 -0.00730623)
(33.9053 -0.130464 0.00225993)
(33.6097 -0.464084 0.00259071)
(33.3409 0.981122 0.00201198)
(32.2103 -0.0738204 0.00244547)
(31.1112 0.456209 0.00708049)
(30.189 0.0944133 -8.17487e-05)
(28.9349 0.0990179 -0.00439629)
(27.4462 -0.0674169 -0.00710734)
(26.5075 0.12121 -0.00454648)
(25.4396 0.218301 0.00186352)
(23.8836 0.184678 -0.000574666)
(22.2074 0.0677581 -0.00248288)
(19.937 0.0922143 -0.00252507)
(20.4159 -0.605453 -1.35618e-06)
(19.5731 0.933507 -2.50358e-05)
(17.3377 0.153844 0.000379385)
(16.9114 0.0690737 0.000263599)
(15.8962 0.0299981 -0.000543443)
(15.1698 0.103848 -0.00189249)
(14.4804 0.0508867 -0.000330687)
(13.8411 0.022517 -4.63001e-05)
(13.2429 0.0171565 9.55418e-05)
(12.6118 -0.013078 0.00104018)
(12.2448 0.0721333 0.00835691)
(11.6723 0.0239782 0.000614255)
(68.7509 4.40925 -0.000643221)
(69.2788 6.84879 -0.0188497)
(65.3349 12.2769 0.0911248)
(72.5787 8.24467 0.0494178)
(75.3961 3.07016 0.0160864)
(71.4174 3.94073 0.00910947)
(68.8039 4.68871 0.00683096)
(72.0452 5.30541 0.00297703)
(71.3468 3.90773 0.000729962)
(67.7918 2.20104 -0.00142655)
(66.2155 1.3087 -0.00550929)
(64.5619 0.831759 -0.00954401)
(63.2601 6.11521 -0.00461483)
(64.4524 1.2533 0.00400644)
(56.3374 3.5082 0.00854946)
(66.4212 13.9325 0.00228296)
(71.3121 7.9364 0.00423467)
(69.3003 5.45464 0.00674531)
(68.1894 2.6243 -0.000297586)
(68.6215 3.98781 -0.000229851)
(69.1536 3.6307 0.00224302)
(67.5014 1.40429 0.00100426)
(67.5822 0.158274 0.00183195)
(67.0829 0.389721 0.00332297)
(67.4728 -0.576877 0.00324606)
(67.4347 0.171193 0.00456661)
(62.2006 3.74462 0.00945128)
(59.9966 0.773739 0.00143629)
(60.7511 -0.535968 -0.00613213)
(60.4579 -1.59403 -0.00157174)
(59.895 -0.00878955 0.00294622)
(60.1562 -0.51799 0.00472432)
(60.2878 -0.21623 0.00497362)
(59.5347 -0.346031 0.000406193)
(58.9951 0.607719 -0.00533459)
(58.3478 1.09184 -0.00103042)
(58.5267 1.16032 -0.00124836)
(57.7912 1.26988 -0.000450619)
(56.4401 0.957446 -0.0109521)
(54.9533 1.45414 -0.00696649)
(53.6091 1.19376 -0.00269417)
(53.3671 0.863541 -0.00291162)
(52.4639 0.640145 -0.00298265)
(53.3296 1.09954 -0.00206738)
(53.7066 -0.459381 -0.000960946)
(51.3281 -0.756553 0.00015766)
(52.1415 -1.76934 0.000492136)
(53.0928 0.737298 -0.000473099)
(52.0487 -0.104024 0.00256656)
(55.3765 -0.249947 0.00632058)
(55.9427 -1.26489 0.00433125)
(53.3826 -0.575941 -0.00223656)
(53.0536 0.187632 -0.00347089)
(54.7735 0.708407 -0.00121323)
(54.9665 -0.546962 -0.00223343)
(52.3047 -0.218494 -0.00198172)
(52.7151 -0.366955 0.00473413)
(51.5024 -0.309485 0.00467508)
(49.2931 0.0941377 0.00119979)
(48.1498 0.668536 -0.0034659)
(47.5793 -0.0629556 -0.0103798)
(46.8417 1.11514 -0.00711057)
(44.8459 0.729661 -0.00489145)
(44.155 0.694893 -0.0069347)
(43.1073 0.63096 -0.00769403)
(41.803 0.433224 -0.00240504)
(40.7657 0.231349 -0.00153864)
(39.7772 0.177195 -0.0241854)
(38.868 0.287547 -0.00630209)
(37.9121 0.189757 0.00464407)
(37.1439 0.220064 0.00808251)
(36.6171 0.271641 4.64382e-05)
(36.134 0.241602 -0.00527209)
(35.2634 0.17638 -0.00281846)
(34.2629 -0.046885 -0.0113671)
(33.6662 -0.174584 0.00142374)
(33.4496 -0.631406 0.00307686)
(33.1967 1.07942 0.00232363)
(31.998 -0.0382432 0.00242968)
(30.8783 0.509857 0.00463889)
(30.0201 0.0844752 -0.000425439)
(28.8195 0.166185 -0.00546859)
(27.3016 -0.0834582 -0.00760932)
(26.4017 0.205707 -0.00721969)
(25.3056 0.267918 0.00224271)
(23.7816 0.223958 -0.000793373)
(22.1083 0.0931923 -0.0030951)
(19.8118 0.12101 -0.00318923)
(20.3653 -0.785505 -0.000197667)
(19.5412 1.19334 6.06309e-05)
(17.24 0.191053 0.000506352)
(16.8467 0.0952567 0.000399253)
(15.8356 0.039308 -0.000440087)
(15.0941 0.10408 -0.001953)
(14.4214 0.059382 -0.000402505)
(13.7884 0.0288645 -5.85112e-05)
(13.1912 0.0220306 0.000118954)
(12.5652 -0.00705394 0.00130053)
(12.1844 0.0728619 0.00622744)
(11.6276 0.021221 0.000638853)
(68.5795 6.16144 -0.00108427)
(69.3242 6.90114 -0.020912)
(61.0272 18.6656 0.0477775)
(69.7915 8.89237 0.0467722)
(73.5513 5.76888 0.0212776)
(70.77 3.9831 0.00849699)
(68.5121 7.06069 -0.00419426)
(71.7746 7.41256 0.00195259)
(70.6336 3.72829 -0.00296598)
(67.0483 2.69273 -0.00271445)
(65.3996 0.996063 -0.00444698)
(64.4404 0.995649 -0.00611509)
(63.4115 8.38626 -0.0043139)
(62.7349 2.09512 -4.66369e-05)
(60.8287 5.37239 0.001714)
(67 16.0128 -0.0045364)
(70.4283 9.08919 0.0520629)
(68.6368 5.7109 0.012403)
(67.6716 3.71079 0.00434335)
(68.4647 4.46995 0.00254551)
(69.0207 3.94675 -0.00386112)
(67.1937 1.48333 -0.00623632)
(67.3253 0.419392 -0.00131304)
(66.7182 0.75732 -0.00186971)
(67.2049 -0.524357 -0.00636975)
(67.5575 -0.0564554 -0.0145434)
(62.0457 4.64096 0.00136509)
(59.5187 0.887983 -0.00779551)
(60.4365 -0.799999 -0.0272678)
(60.2698 -1.18589 -0.0107803)
(59.6975 0.304569 0.00131551)
(59.8585 -0.600645 0.00425251)
(59.9731 -0.278451 0.0046482)
(59.1791 -0.523033 0.0020201)
(58.5339 0.726174 -0.00260767)
(57.7264 1.18494 -0.002313)
(57.8547 1.28199 0.000562356)
(57.0793 1.28659 0.0031602)
(55.7523 0.977063 -0.00113961)
(54.0926 1.78142 0.0106585)
(53.002 1.29759 0.0104785)
(52.9985 1.01214 -0.00183147)
(52.1762 0.885364 -0.00867256)
(52.846 1.32068 -0.00315613)
(53.2175 -0.55995 -0.0005156)
(50.9653 -0.924486 0.00271226)
(51.9309 -2.11809 0.0036359)
(52.8117 0.984535 0.00150339)
(51.5977 -0.185621 0.00399664)
(54.8877 -0.203547 0.0062951)
(55.4462 -1.52453 0.00490839)
(52.8976 -0.721108 -0.00301483)
(52.661 0.180141 -0.00752834)
(54.1356 1.00601 -0.000771257)
(54.2713 -0.54947 -0.00180745)
(51.5962 -0.207923 -0.00108989)
(51.9911 -0.314838 0.0100018)
(50.7432 -0.428243 0.0108896)
(48.521 0.103082 0.00277777)
(47.3692 0.835929 -0.00401858)
(46.9027 0.189521 -0.0160828)
(46.2311 1.38821 -0.00987898)
(44.2221 0.874933 -0.00593427)
(43.6137 0.867654 -0.00871231)
(42.6243 0.678937 -0.00985292)
(41.3632 0.506454 -0.00341995)
(40.3597 0.292256 -0.000373696)
(39.3912 0.217575 -0.0222581)
(38.4919 0.374402 -0.0123395)
(37.5975 0.243704 0.00558909)
(36.845 0.203012 0.0115816)
(36.3375 0.316622 0.000432406)
(35.8554 0.26897 -0.00454956)
(34.9985 0.200868 -0.00278841)
(34.0146 -0.00272596 -0.017012)
(33.3946 -0.204578 0.000708176)
(33.2643 -0.798985 0.00347796)
(33.0207 1.10639 0.00248352)
(31.7563 0.0223847 0.00210225)
(30.6545 0.538331 0.00359744)
(29.8244 0.067698 -0.000852631)
(28.6483 0.244519 -0.00600372)
(27.1324 -0.0402516 -0.00723608)
(26.2074 0.294485 -0.00323484)
(25.1703 0.307301 0.00278816)
(23.6593 0.26094 -0.00104786)
(21.9965 0.120461 -0.00364292)
(19.6804 0.152433 -0.00379334)
(20.3104 -0.938051 -0.000310961)
(19.499 1.42646 0.000219082)
(17.131 0.225676 0.000639881)
(16.7732 0.121114 0.000582467)
(15.7694 0.0368956 -0.000371531)
(15.0236 0.106306 -0.0021103)
(14.3583 0.0781459 -0.000468182)
(13.7315 0.0352752 -7.03443e-05)
(13.1364 0.0269281 0.000139761)
(12.5154 -0.00118125 0.00155091)
(12.126 0.0715048 0.00477651)
(11.5803 0.0184812 0.000628633)
(67.8633 8.06499 -0.00085793)
(68.2294 7.18094 -0.0182432)
(62.2214 17.8751 0.011765)
(68.8507 9.57934 0.0539356)
(71.9169 8.07336 0.0137361)
(70.2156 6.68217 -0.00321362)
(67.3589 10.9947 -0.0505251)
(70.0464 8.77209 -0.0383498)
(69.4916 3.95118 -0.0190448)
(66.0283 3.03197 -0.00644903)
(64.4984 -0.262549 -0.00438963)
(64.1101 0.882841 -0.00358294)
(63.4056 4.6913 0.00476667)
(62.0466 2.75652 0.000459866)
(62.5065 7.11656 -2.95698e-05)
(67.2152 15.2168 -0.00299198)
(69.6679 8.86871 0.00825954)
(68.2352 5.77212 0.00397366)
(67.4477 4.48754 0.00387115)
(68.5351 4.86797 -0.00157129)
(68.9221 4.21267 -0.0301901)
(66.8237 1.64527 -0.0226963)
(67.1345 0.813965 -0.0120079)
(66.4525 0.937626 -0.0119817)
(66.8462 -0.505181 -0.0169507)
(67.2967 -0.316177 -0.0459037)
(61.8911 -2.40372 -0.00944519)
(58.9494 0.790124 -0.0103561)
(60.2294 -0.883891 -0.0553365)
(60.1338 -0.998572 -0.0200895)
(59.4976 0.611426 0.00551142)
(59.5495 -0.623557 0.00577722)
(59.6704 -0.342556 0.00518494)
(58.8755 -0.756563 0.00249354)
(58.1822 0.827417 -0.00601469)
(57.2652 1.15657 -0.00541733)
(57.2921 1.42577 -0.000183241)
(56.4416 1.25103 0.00393735)
(55.0884 0.972503 0.00571614)
(53.5368 1.71337 0.0383205)
(52.6783 1.41708 0.0645519)
(52.2982 1.24191 0.00949691)
(51.4148 1.38304 -0.00132612)
(52.2087 1.50271 -0.00241091)
(52.6491 -0.654095 -0.000356091)
(50.532 -1.18432 0.00382839)
(51.7384 -2.1048 0.00391849)
(52.4802 1.42951 0.000765514)
(51.0348 -0.19131 0.00171274)
(54.2367 -0.0334559 0.00404839)
(54.806 -1.74245 0.00228123)
(52.287 -0.705497 -0.00234088)
(52.0365 0.287512 -0.000680861)
(53.3692 1.39057 0.00137135)
(53.4572 -0.439455 -0.000899623)
(50.8019 -0.158765 0.000229583)
(51.1919 -0.255405 0.0134862)
(49.9451 -0.446492 0.0212283)
(47.6974 0.167226 0.00424527)
(46.5313 1.01759 -0.00431702)
(46.1788 0.944578 -0.0234969)
(45.5362 1.66024 -0.0132032)
(43.5263 0.998632 -0.00668294)
(43.0035 0.978325 -0.0102882)
(42.0889 0.754204 -0.011768)
(40.8622 0.590102 -0.00500325)
(39.8958 0.337076 0.00148357)
(38.9414 0.278088 -0.0181897)
(38.0887 0.406501 -0.0161087)
(37.2475 0.271513 0.00652142)
(36.5126 0.224544 0.0160257)
(36.0138 0.360271 0.000831926)
(35.5389 0.299651 -0.00382722)
(34.6973 0.220405 -0.00255978)
(33.7359 0.0322299 -0.0246194)
(33.0906 -0.224624 0.000198829)
(33.0468 -0.990739 0.00381539)
(32.8187 1.04849 0.00252452)
(31.4912 0.0756675 0.00148946)
(30.4267 0.574689 0.00360178)
(29.6065 0.0955694 -0.0014172)
(28.4091 0.280393 -0.00317038)
(26.9345 -0.00797221 -0.00618323)
(26.0046 0.342673 -0.000743836)
(25.0322 0.332607 0.00338815)
(23.5203 0.302614 -0.00134563)
(21.8715 0.142873 -0.00411619)
(19.5418 0.196313 -0.00430474)
(20.2494 -1.07859 -0.000358481)
(19.4463 1.65854 0.000464789)
(17.0114 0.2577 0.000773066)
(16.6922 0.145156 0.000826844)
(15.6976 0.0367486 -0.000320316)
(14.9431 0.115167 -0.00191047)
(14.2901 0.0953355 -0.000528444)
(13.6699 0.0416003 -8.20439e-05)
(13.0781 0.031794 0.000157554)
(12.4621 0.00266113 0.00179223)
(12.0675 0.0735299 0.00370022)
(11.5302 0.0175313 0.0005967)
(66.928 8.86023 -0.00392148)
(66.7546 9.55917 -0.0117921)
(63.1587 18.0892 -0.0188504)
(67.7765 12.6725 0.00981953)
(70.828 10.3883 0.00624367)
(69.2928 7.90073 -0.00141404)
(66.6933 11.7142 -0.0250053)
(68.8131 8.37537 -0.0185576)
(67.951 3.69278 -0.00560537)
(64.737 3.84405 0.00222126)
(63.507 -2.24838 0.0052677)
(63.7817 0.839954 0.00465721)
(62.5239 2.368 0.00923425)
(61.8828 2.95268 0.007189)
(63.0855 8.99412 0.000832727)
(66.9697 14.4925 -0.00027868)
(68.9874 8.35815 0.002772)
(67.9632 5.6787 0.00317197)
(67.3264 4.93775 0.00434256)
(68.6407 4.78371 -0.00142042)
(68.8391 4.28689 -0.0150421)
(66.3881 2.24051 -0.035133)
(66.7362 1.44534 -0.0120073)
(65.9533 1.13618 -0.0168618)
(66.3864 -0.452911 -0.0257559)
(66.7928 -0.571826 -0.020098)
(61.661 -8.00086 0.00611265)
(59.1209 0.757208 0.00701436)
(59.702 -1.00248 -0.0113566)
(59.9152 -1.0465 0.000313993)
(59.4055 0.693695 0.036271)
(59.2468 -0.409078 0.0132168)
(59.3786 -0.389651 0.0105307)
(58.6343 -1.04248 0.00606166)
(57.8799 0.803736 -0.0154646)
(56.9743 1.203 -0.0226425)
(56.8656 1.54676 -0.00376707)
(55.8662 1.20013 0.00172037)
(54.4501 0.939024 0.00630184)
(52.7894 1.65801 0.0198089)
(51.5467 1.75668 0.0161857)
(51.457 1.3436 0.00403781)
(50.7903 1.1971 -0.000834788)
(51.5919 1.53251 -0.00255475)
(52.0392 -0.739497 -0.00155675)
(49.9992 -1.32788 0.000594873)
(51.3245 -2.52958 -9.69912e-05)
(52.0434 1.70697 -0.00190889)
(50.3599 -0.162818 -0.000821884)
(53.49 0.107986 0.000847943)
(54.0719 -1.87943 0.000145052)
(51.5752 -0.75507 -0.00137675)
(51.2553 0.358682 0.0043992)
(52.4946 1.79205 0.00117203)
(52.5223 -0.398672 -0.000948232)
(49.9283 -0.0633109 0.00169947)
(50.3142 -0.110661 0.0124534)
(49.0337 -0.587316 0.0126735)
(46.8098 0.181405 0.00374581)
(45.6694 1.22405 -0.00439188)
(45.4278 2.08907 -0.0296375)
(44.7438 1.84718 -0.0174235)
(42.74 1.10168 -0.00687039)
(42.3252 1.07131 -0.011418)
(41.4543 0.840457 -0.0116513)
(40.3 0.652113 -0.00758522)
(39.3805 0.367707 0.00404381)
(38.443 0.319434 -0.0132369)
(37.6535 0.408546 -0.0204213)
(36.8725 0.292198 0.00746409)
(36.1598 0.299055 0.0214714)
(35.6498 0.430582 0.00103755)
(35.1852 0.330039 -0.00313777)
(34.361 0.216904 -0.00214637)
(33.438 0.07578 -0.0343931)
(32.7488 -0.228762 0.000113165)
(32.7948 -1.14164 0.00411043)
(32.5906 1.06061 0.00255271)
(31.212 0.108565 0.000560583)
(30.1886 0.628202 0.0051645)
(29.3627 0.159386 -0.00222772)
(28.1632 0.293556 -0.000520405)
(26.7117 -0.0172908 -0.00478627)
(25.7952 0.364955 0.000763033)
(24.8951 0.372774 0.00399288)
(23.3659 0.366495 -0.00168425)
(21.7333 0.169068 -0.00450615)
(19.3763 0.241171 -0.00409373)
(20.1846 -1.1706 -0.000359661)
(19.3867 1.83676 0.000807758)
(16.878 0.285569 0.000895037)
(16.6044 0.167762 0.00114736)
(15.6197 0.050517 -0.000278008)
(14.8593 0.122493 -0.00178931)
(14.2175 0.102321 -0.000590704)
(13.604 0.0477953 -9.39865e-05)
(13.0159 0.0366145 0.000171987)
(12.4051 0.00515235 0.00202365)
(12.008 0.0777756 0.00284052)
(11.477 0.0174805 0.000552075)
(65.2511 9.82329 -0.00180829)
(64.9708 11.0848 -0.00389531)
(63.1757 17.1857 0.00554969)
(66.3924 13.3059 0.0208635)
(69.0521 10.5654 0.00985326)
(67.7067 4.98286 0.00268265)
(65.9166 11.0113 -0.00544701)
(67.0883 6.94755 -0.00149547)
(66.5916 3.38608 0.00905673)
(63.1256 0.573047 0.0155994)
(62.0536 2.81615 0.0154386)
(63.1463 1.27259 0.00790756)
(61.9972 3.86933 0.0130321)
(61.5284 4.6866 0.00793746)
(62.9545 10.4609 0.00148816)
(66.5718 14.2854 0.00198764)
(68.337 8.59848 0.012883)
(67.7476 5.54689 0.00912706)
(67.1915 5.18162 0.00832206)
(68.7245 4.78648 0.000237512)
(68.6956 4.27622 -0.0103526)
(65.9778 2.73885 -0.0180247)
(66.3433 1.89043 -0.0139282)
(65.4376 1.32966 -0.0222006)
(65.7793 -0.0223313 -0.0406375)
(65.8029 -0.520238 -0.00463724)
(61.4166 -5.97805 0.0191133)
(59.1534 0.795638 0.0255967)
(59.3655 -0.926306 0.0245)
(59.6948 -0.916888 0.0142488)
(58.9973 0.914131 0.0151658)
(58.8682 -0.129707 0.0101391)
(59.0421 -0.398933 0.0252986)
(58.4388 -1.37808 0.021521)
(57.803 0.73964 0.00163223)
(56.6257 1.42192 0.00115794)
(56.3569 1.59371 0.00484298)
(55.3303 1.22316 -0.000924438)
(53.8517 0.946166 0.00355555)
(52.1625 1.30418 0.0079309)
(50.7944 1.57843 0.0049965)
(50.7721 1.2965 0.00153008)
(50.2663 1.10577 -0.0012705)
(51.0162 1.53034 -0.00325525)
(51.4168 -0.804051 -0.00334441)
(49.409 -1.43834 -0.00312597)
(50.9011 -2.76199 -0.00396313)
(51.5596 1.71155 -0.00399283)
(49.6283 -0.169403 -0.00163077)
(52.6823 0.307824 0.00035509)
(53.2504 -1.90199 -0.00012482)
(50.7925 -0.811832 3.54768e-05)
(50.2923 0.445003 0.00248227)
(51.538 1.77332 -0.00285819)
(51.4753 -0.190211 -0.00425124)
(49.003 0.0818799 0.00295459)
(49.3741 0.136274 0.00960274)
(48.0606 -0.662348 0.00902986)
(45.89 0.144256 0.00335684)
(44.8175 1.4038 -0.00414374)
(44.5891 3.00379 -0.0233618)
(43.8812 1.54806 -0.0197197)
(41.918 1.21847 -0.00827148)
(41.5956 1.15786 -0.012267)
(40.7974 0.860492 -0.00962464)
(39.6991 0.69583 -0.0119228)
(38.8235 0.401324 0.00737675)
(37.9039 0.326299 -0.00842226)
(37.1948 0.432981 -0.0273526)
(36.3815 0.359547 0.00455966)
(35.6964 0.362606 0.0143359)
(35.2426 0.49625 0.000721601)
(34.794 0.357425 -0.0025127)
(33.9926 0.217912 -0.00154663)
(33.0492 0.1219 -0.0211669)
(32.3704 -0.228004 0.000808989)
(32.518 -1.3212 0.00437146)
(32.3308 0.87962 0.00277097)
(30.9304 0.217522 -0.000765593)
(29.8663 0.652116 0.00139816)
(29.1008 0.214588 -0.00340593)
(27.9189 0.359595 0.00200156)
(26.4662 0.00918054 -0.00333057)
(25.573 0.379436 0.00168983)
(24.7139 0.438234 0.00388372)
(23.1907 0.442069 -0.00215862)
(21.5801 0.204685 -0.00480743)
(19.1989 0.275793 -0.00383527)
(20.1117 -1.26034 -0.000358563)
(19.3171 2.00293 0.00125244)
(16.7354 0.309714 0.000991452)
(16.5099 0.188919 0.00155975)
(15.5346 0.0635189 -0.000311163)
(14.7733 0.128464 -0.00173726)
(14.1405 0.108331 -0.000660508)
(13.5339 0.0539215 -0.000106606)
(12.9496 0.0413604 0.000182776)
(12.3443 0.006971 0.00224443)
(11.9467 0.0834731 0.00210352)
(11.4209 0.0177124 0.000501546)
(62.8412 9.9545 -0.000582667)
(63.0151 10.9013 -0.0004369)
(62.2919 16.9183 0.0100889)
(64.3537 12.3086 0.0269009)
(66.4952 9.15878 0.00750111)
(66.0008 3.9149 0.00171424)
(64.6002 10.8889 -0.000580852)
(65.1554 6.55523 0.00681216)
(64.6678 3.61878 0.0238162)
(62.1389 -3.11866 0.0371546)
(61.0194 7.46679 0.0197673)
(61.8989 2.98885 0.000380376)
(62.5677 8.8617 0.0178172)
(62.1157 6.18866 0.0315661)
(62.9126 12.2649 0.00614838)
(66.1468 13.9674 0.00482677)
(68.0001 8.994 0.00914761)
(67.575 5.2006 0.00787496)
(67.2154 5.62762 0.00335912)
(68.8267 4.66884 -0.00279609)
(68.3736 4.64516 -0.0153976)
(65.4603 2.98496 -0.0128684)
(65.7716 1.85237 -0.00845072)
(64.8771 1.07694 -0.0114141)
(65.378 0.546109 -0.00629486)
(65.1777 -0.793509 0.0165377)
(61.1131 -4.46675 0.0335789)
(59.0635 0.85191 0.0348831)
(58.8454 -0.994553 0.0280011)
(59.4586 -0.783654 0.0182894)
(58.7059 0.953494 0.0120434)
(58.4916 0.0702811 0.0103197)
(58.6568 -0.289497 0.053854)
(58.274 -1.50711 0.0627226)
(57.7421 0.929332 0.0151133)
(56.3322 1.45876 0.00809071)
(55.9983 1.85845 -0.00225275)
(54.8359 1.09696 -0.00811663)
(53.428 1.09694 -0.00389664)
(51.4384 1.64275 -0.00121878)
(50.1636 1.5414 -6.24606e-05)
(50.2108 1.27373 -0.000367719)
(49.8227 1.03112 -0.00215894)
(50.4784 1.47345 -0.00446744)
(50.7936 -0.832535 -0.00513908)
(48.7999 -1.49211 -0.00596151)
(50.4556 -2.77035 -0.00668392)
(51.0411 1.62902 -0.00503589)
(48.8732 -0.241904 -0.000480383)
(51.8208 0.45441 0.00232563)
(52.3534 -1.73518 0.00119836)
(49.9438 -0.757943 0.0019753)
(49.3501 0.461299 0.0037294)
(50.5985 1.82678 -0.00580817)
(50.3778 0.0605262 -0.00654636)
(47.9938 0.148901 0.00378672)
(48.4314 0.370285 0.00378023)
(47.0841 -0.473769 0.00743482)
(44.9448 0.142563 0.00316684)
(43.9491 1.62672 -0.00380198)
(43.597 3.44582 -0.0168571)
(42.8755 1.42637 -0.0146747)
(41.0652 1.31528 -0.00852254)
(40.8114 1.14031 -0.0118836)