/*--------------------------------*- C++ -*----------------------------------*\
  =========                 |
  \\      /  F ield         | OpenFOAM: The Open Source CFD Toolbox
   \\    /   O peration     | Website:  https://openfoam.org
    \\  /    A nd           | Version:  6
     \\/     M anipulation  |
\*---------------------------------------------------------------------------*/
FoamFile
{
    version     2.0;
    format      ascii;
    class       volScalarField;
    location    "0.1";
    object      varZ;
}
// * * * * * * * * * * * * * * * * * * * * * * * * * * * * * * * * * * * * * //

dimensions      [0 0 0 0 0 0 0];

internalField   nonuniform List<scalar> 
8000
(
6.21051e-05
0.000631778
0.002446
0.00645328
0.00939835
0.00695749
0.00381895
0.00186073
0.000846793
0.000364708
0.000147989
5.83701e-05
3.1497e-05
0.000264029
0.000170336
8.42894e-05
0.000191204
0.00187226
0.000458997
0.000270075
0.000267958
0.000383891
0.000609526
0.000883508
0.00112176
0.00128005
0.0013857
0.00172079
0.00272665
0.0053373
0.00381035
0.0023589
0.00160116
0.0012683
0.00115584
0.001134
0.00116973
0.00126098
0.00146159
0.00174047
0.00160544
0.00153039
0.00149721
0.00147442
0.0014395
0.00138021
0.00131457
0.00131688
0.00153378
0.00214365
0.00177817
0.00105149
0.000687275
0.000483286
0.000362382
0.000294787
0.000277424
0.000315412
0.000416552
0.000572925
0.00076185
0.000953857
0.00112251
0.00124565
0.00132166
0.00135625
0.00136729
0.00136168
0.001336
0.00133597
0.00131624
0.00125523
0.00125584
0.00125034
0.0012769
0.00132168
0.00132274
0.00132737
0.00133871
0.00131508
0.00127365
0.00125321
0.00122461
0.00120066
0.00117976
0.00116252
0.00115144
0.001127
0.00109847
0.000994769
0.000900246
0.000815857
0.000745616
0.000684406
0.000613432
0.000570061
0.000541838
0.000518961
0.000503194
0.00046871
5.24602e-05
0.000609329
0.00251303
0.00694835
0.0101234
0.00710559
0.00373827
0.00179713
0.000803287
0.000339179
0.000134803
5.27043e-05
3.49838e-05
0.000772256
0.000484058
0.000165555
0.000147624
0.000577378
0.000519923
0.000576913
0.000385448
0.000445717
0.000661989
0.000922599
0.00114652
0.00131312
0.0013793
0.00166122
0.00250856
0.00424377
0.00314294
0.00211271
0.00153768
0.0012994
0.00127382
0.0013037
0.00134897
0.00142775
0.00157073
0.00187306
0.00170783
0.00163602
0.00158765
0.00154369
0.0014902
0.00141396
0.00132159
0.00127385
0.00139059
0.00175698
0.00140699
0.000912688
0.000644002
0.000471176
0.000364464
0.000307633
0.000301553
0.000350071
0.000457861
0.00061411
0.000798985
0.000985348
0.00114876
0.00126699
0.0013384
0.00136935
0.00137769
0.0013708
0.00134266
0.00133971
0.00130972
0.00125772
0.00125978
0.00125271
0.00127893
0.00132467
0.00132488
0.0013297
0.00134089
0.00131872
0.00127604
0.00125607
0.00122704
0.00120281
0.00118217
0.00116413
0.00115282
0.00112819
0.00109327
0.00099523
0.000900739
0.000816206
0.000745903
0.000684808
0.000613575
0.000570247
0.000542025
0.00051913
0.000503544
0.000468858
3.89053e-05
0.000572446
0.00301823
0.00818383
0.00957944
0.00639903
0.00327859
0.00171261
0.000741564
0.000265164
0.000102862
3.78223e-05
3.32007e-05
0.000402363
0.000910633
0.000156253
7.49657e-05
0.000123492
0.000289683
0.000397028
0.000345594
0.000492351
0.000750274
0.000988729
0.00116718
0.00135696
0.00135122
0.00154427
0.00210949
0.00271823
0.00228531
0.00178841
0.00147784
0.00136825
0.00147157
0.00163121
0.0016586
0.00175068
0.00179713
0.0018823
0.00186228
0.0018391
0.00175569
0.00166079
0.00156965
0.00146384
0.00132917
0.0012044
0.00116437
0.00117242
0.000963254
0.000748634
0.000592195
0.000456741
0.000373995
0.000339298
0.000354818
0.000422028
0.000542092
0.000699068
0.000876504
0.00105201
0.00120474
0.0013127
0.00137441
0.00139741
0.00140007
0.00139052
0.00135722
0.00134785
0.0013104
0.00126347
0.00126828
0.00125774
0.00128331
0.00133115
0.00132943
0.00133479
0.00134555
0.00132668
0.0012812
0.00126239
0.00123227
0.00120756
0.00118738
0.00116763
0.00115583
0.0011308
0.00109062
0.000996387
0.000901829
0.000816967
0.000746517
0.000685677
0.000613881
0.000570653
0.000542436
0.000519501
0.000504285
0.000469178
3.05654e-05
0.000635575
0.00643714
0.00659746
0.00659743
0.00457926
0.00235594
0.00110335
0.000477723
0.000184718
6.75079e-05
2.57111e-05
2.53723e-05
0.000338766
0.000462305
0.000111104
5.53389e-05
7.59442e-05
0.000284193
0.00039942
0.000382111
0.000587551
0.0008806
0.00106261
0.00115229
0.0012784
0.00127558
0.00139816
0.001714
0.00191612
0.00178527
0.00161821
0.00151292
0.00148003
0.00156197
0.00175548
0.00178887
0.00199108
0.0021015
0.0021988
0.00217578
0.00212693
0.00194671
0.00176261
0.00162186
0.00148706
0.00131562
0.0011306
0.000997333
0.000889763
0.000758554
0.000639677
0.000539278
0.000451985
0.000401056
0.000395336
0.000436457
0.000524494
0.000658626
0.000817744
0.000986097
0.00114794
0.0012859
0.00137946
0.00142696
0.00143827
0.0014325
0.00141949
0.00137923
0.00136015
0.00131952
0.0012721
0.00127341
0.00126481
0.00128977
0.00133416
0.00133593
0.00134243
0.00135236
0.00133055
0.00128879
0.00127206
0.00123987
0.00121494
0.00119136
0.00117285
0.00116036
0.00113474
0.00109015
0.000998252
0.000903482
0.000818116
0.000746668
0.000684311
0.000614297
0.000571265
0.000543055
0.000520065
0.000502999
0.000469633
2.75054e-05
0.000462046
0.00475674
0.00507401
0.00435713
0.00295239
0.00146478
0.000666733
0.000281415
0.000104334
3.77968e-05
1.54102e-05
1.58607e-05
0.000238884
0.000618076
0.00010873
5.44738e-05
7.10881e-05
0.000185927
0.000276533
0.000425564
0.000733594
0.0010379
0.00112113
0.00111027
0.00120241
0.00118993
0.00125304
0.00141918
0.00152748
0.00156389
0.00160984
0.00166301
0.00169394
0.00174351
0.0018302
0.00192976
0.00209277
0.00229246
0.0024806
0.00239311
0.0023332
0.00205688
0.00177859
0.00159626
0.00144596
0.00125566
0.00104126
0.000882373
0.000765956
0.000669925
0.000600966
0.000536429
0.000481326
0.000457728
0.000480115
0.000545343
0.000652952
0.000800271
0.000962758
0.00112203
0.00126846
0.0013883
0.00146465
0.00149412
0.00148951
0.00147299
0.00145574
0.00140849
0.00137657
0.00133018
0.00128292
0.00127959
0.00127365
0.00129817
0.00133819
0.00134421
0.00135252
0.00136114
0.00133664
0.0012988
0.00128494
0.00124934
0.00122496
0.00119797
0.00117979
0.00116633
0.00113999
0.00109096
0.00100083
0.000905683
0.000819625
0.000747171
0.000683266
0.000614876
0.000572076
0.000543875
0.000520819
0.000501918
0.000470257
1.95119e-05
0.000403877
0.00483808
0.00371393
0.00265048
0.00171599
0.00081362
0.000384956
0.000140386
5.01197e-05
1.8612e-05
1.03637e-05
1.44243e-05
0.000110841
0.000145809
6.73939e-05
6.41946e-05
8.99461e-05
0.000161988
0.000276848
0.000542453
0.000852126
0.00104041
0.00105656
0.00103797
0.00106834
0.00107718
0.0011221
0.00123032
0.00134382
0.00149587
0.00169431
0.0018889
0.00201484
0.00210736
0.00219441
0.00227986
0.00238463
0.00245834
0.00251346
0.00240713
0.00221911
0.00195946
0.00167614
0.00148224
0.0013263
0.00114708
0.000935815
0.000792093
0.000704009
0.000642284
0.000608967
0.000574237
0.000546959
0.000545852
0.000593037
0.000679206
0.000804554
0.000961274
0.00112796
0.00128136
0.00140958
0.00150821
0.00156484
0.00157344
0.00154899
0.00151946
0.00149608
0.00143786
0.00139676
0.00134473
0.00129538
0.00128745
0.00128393
0.00130841
0.00134397
0.00135412
0.00136493
0.00137177
0.00134637
0.0013112
0.00129771
0.00125994
0.00123312
0.00120721
0.00118842
0.00117369
0.00114656
0.00109311
0.00100412
0.00090842
0.000821476
0.000747982
0.000682708
0.000615622
0.000573078
0.000544885
0.000521759
0.000501226
0.000471057
1.19689e-05
0.000301171
0.00225894
0.00193617
0.00134797
0.000913923
0.000458222
0.000195
6.60185e-05
2.34185e-05
1.15096e-05
1.38095e-05
3.02553e-05
6.5086e-05
6.97881e-05
5.60226e-05
7.65663e-05
0.000122218
0.000196664
0.000340297
0.000614997
0.00086935
0.000939353
0.000956143
0.000972048
0.00098714
0.000987944
0.00102068
0.0011099
0.00123747
0.00147219
0.00177338
0.00209686
0.00232682
0.00250058
0.00262542
0.00267557
0.00268428
0.00262724
0.00251621
0.00232276
0.00202615
0.00176662
0.00153679
0.00133671
0.00115777
0.0010003
0.000836922
0.000726542
0.000677105
0.000649229
0.000655704
0.000656377
0.000647638
0.000663352
0.000730897
0.000835004
0.000974447
0.00113571
0.00130748
0.00146299
0.00156826
0.00164474
0.00167521
0.00166123
0.001615
0.00156973
0.00153775
0.00147102
0.0014208
0.00136305
0.00130884
0.00129675
0.00129528
0.0013204
0.00135149
0.00136549
0.00137951
0.00138421
0.00135984
0.00132593
0.0013097
0.00127114
0.00124266
0.00121916
0.00119867
0.00118233
0.0011543
0.0010964
0.00100811
0.000911678
0.000823649
0.000749081
0.000682113
0.000616499
0.000574259
0.000546076
0.000522885
0.000500952
0.000472033
7.36762e-06
0.000210331
0.000997255
0.000906949
0.000645954
0.000376242
0.000204832
8.55891e-05
2.92541e-05
1.27711e-05
1.15792e-05
2.68235e-05
9.34832e-05
9.84343e-05
7.68734e-05
7.61029e-05
0.000113751
0.000187916
0.000291601
0.00044072
0.000628026
0.000814551
0.000867144
0.000898578
0.000933512
0.000924942
0.000917472
0.00094435
0.0010153
0.00114547
0.00139444
0.00174242
0.00217915
0.00247178
0.00266117
0.00283307
0.00289094
0.00281813
0.00269196
0.00242617
0.00215379
0.00190544
0.00167123
0.00143796
0.0012174
0.00103046
0.000888277
0.000758353
0.000681634
0.000657867
0.000669575
0.000719089
0.000771266
0.000775458
0.000807172
0.000889601
0.00100736
0.00115249
0.00131759
0.00149523
0.00166139
0.0017394
0.00179162
0.00179083
0.00175171
0.00168469
0.00162182
0.00157923
0.00150782
0.00144836
0.00138539
0.00132253
0.00130702
0.0013073
0.00133388
0.00136051
0.00137811
0.00139587
0.00139863
0.00137574
0.00134289
0.00132324
0.00128284
0.00125385
0.00123352
0.00121047
0.00119216
0.00116159
0.00110063
0.00101277
0.000915438
0.000826126
0.000750441
0.000681797
0.000617537
0.000575608
0.000547434
0.000524189
0.000501089
0.000473183
3.85536e-06
0.000122422
0.000438474
0.000426967
0.000284366
0.000144527
7.88788e-05
3.47238e-05
1.39961e-05
1.103e-05
1.70983e-05
5.13762e-05
0.000288994
0.0002646
0.000158945
0.000132381
0.000173362
0.000280168
0.000446876
0.000612545
0.000745202
0.000792354
0.000828182
0.000855264
0.000889378
0.000880772
0.000864143
0.000886035
0.000953922
0.00106314
0.0012612
0.00159879
0.00206793
0.00236914
0.00251279
0.00268076
0.00279243
0.00272353
0.00257146
0.00233162
0.00207221
0.00183617
0.00160276
0.00136106
0.00112835
0.000931459
0.00079417
0.000705722
0.000663777
0.000668014
0.000709526
0.000792943
0.000885933
0.00091509
0.000970879
0.00106417
0.00119395
0.00133733
0.00150118
0.00168433
0.00186066
0.00191324
0.00193419
0.0019055
0.00184361
0.00175596
0.0016741
0.00161918
0.00154755
0.001471
0.00140043
0.00133531
0.00131771
0.00131956
0.0013454
0.00137059
0.0013918
0.00141344
0.00141526
0.00139139
0.00136166
0.00133882
0.00129506
0.00126668
0.00124852
0.00122349
0.00120303
0.00116966
0.00110571
0.00101809
0.00091968
0.000828893
0.000751651
0.000681767
0.00061873
0.000577112
0.000548944
0.000525664
0.000501622
0.000474501
1.69295e-06
6.08898e-05
0.000181182
0.000182712
0.000110768
5.32351e-05
2.97684e-05
1.51044e-05
1.06954e-05
1.49229e-05
2.87003e-05
8.31639e-05
0.000442643
0.000620241
0.000288314
0.000194779
0.000201931
0.000334511
0.00056754
0.000737202
0.000831207
0.000833971
0.000832104
0.000830954
0.000856178
0.00084394
0.000821996
0.000839483
0.000897848
0.000999225
0.00114866
0.001378
0.00167428
0.00191242
0.00210381
0.00232345
0.00243146
0.0024535
0.00231189
0.0021339
0.00194088
0.00173092
0.00150717
0.00127685
0.00105214
0.000859832
0.000741568
0.000688295
0.00068108
0.000712285
0.00077456
0.0008786
0.000991159
0.00105697
0.00114318
0.00124867
0.00139439
0.00152746
0.00168365
0.00186792
0.00204506
0.00208082
0.00206839
0.00201259
0.0019345
0.00182682
0.00172536
0.00165596
0.00158381
0.0014898
0.00141037
0.00134666
0.00132835
0.00133167
0.00135638
0.0013813
0.00140616
0.00143099
0.00143113
0.00140788
0.00137827
0.00135138
0.00130778
0.00128091
0.001263
0.00123777
0.00121483
0.00117834
0.00111153
0.00102402
0.000924381
0.000831937
0.000752989
0.00068201
0.000620067
0.000578755
0.000550592
0.000527299
0.000502535
0.000475978
6.9455e-07
2.71652e-05
7.93775e-05
7.52314e-05
4.12407e-05
1.89218e-05
1.45653e-05
1.36338e-05
1.67378e-05
2.59731e-05
4.70363e-05
0.000108427
0.000394979
0.000745044
0.000363842
0.000224893
0.000218801
0.000326954
0.000566349
0.000717404
0.000793647
0.000861842
0.000865922
0.000811986
0.000803011
0.000794563
0.000789197
0.000802943
0.000863845
0.00094648
0.00103961
0.00116141
0.00132789
0.00147338
0.00165459
0.0018662
0.00196628
0.00202826
0.00196993
0.00186007
0.00172721
0.00155402
0.00136036
0.00116569
0.000973371
0.000804186
0.000719404
0.000703384
0.00073424
0.000791428
0.000869638
0.000981821
0.00110714
0.00120464
0.00131837
0.00143642
0.00159399
0.00171397
0.00185964
0.00204025
0.00221088
0.00224005
0.00219171
0.00210959
0.00201249
0.00188671
0.00177442
0.00168808
0.00160724
0.00150528
0.00141681
0.00135636
0.00133855
0.00134331
0.00136674
0.00139227
0.00141991
0.00144781
0.00144851
0.00142498
0.00139425
0.00136316
0.00132112
0.00129627
0.00127819
0.00125321
0.00122743
0.00118753
0.00111804
0.00103045
0.000929515
0.000835248
0.00075444
0.000682504
0.000621536
0.000580521
0.000552361
0.000529082
0.000503499
0.000477601
2.93016e-07
1.09107e-05
3.18046e-05
3.38148e-05
2.01955e-05
1.64106e-05
2.01589e-05
2.91256e-05
4.10755e-05
6.14608e-05
9.01169e-05
0.000141674
0.000317148
0.000659087
0.000358595
0.00023308
0.000231615
0.000323392
0.000523952
0.000685536
0.000778677
0.000871633
0.000879678
0.000786332
0.000758894
0.000764466
0.000765178
0.000772386
0.000836242
0.000882026
0.000936606
0.000997353
0.00109051
0.00119013
0.00132684
0.00146371
0.00156252
0.0016141
0.00160424
0.00153442
0.00146107
0.00132853
0.00117438
0.00102634
0.000887625
0.000759989
0.000724411
0.000751678
0.000818782
0.000900002
0.000995294
0.00110302
0.00123598
0.00135518
0.00149456
0.00162241
0.00177922
0.00189115
0.00202513
0.00220045
0.00235837
0.00238587
0.00230509
0.00219424
0.00207466
0.00193436
0.00182074
0.00171469
0.00161896
0.00151225
0.00142036
0.00136431
0.00134797
0.00135422
0.00137661
0.00140319
0.00143353
0.00146383
0.00146755
0.00144106
0.00140953
0.00137509
0.0013352
0.00131257
0.00129392
0.00126974
0.0012407
0.00119713
0.00112518
0.00103595
0.00093502
0.000838736
0.000755976
0.000683216
0.000623121
0.000582392
0.000554233
0.000531007
0.000504688
0.000479357
3.032e-07
4.32055e-06
1.27833e-05
2.17649e-05
3.51243e-05
4.01994e-05
5.65296e-05
8.73301e-05
0.00012211
0.000188927
0.000193584
0.000222691
0.000308686
0.00051302
0.000327445
0.000250241
0.000275215
0.000360642
0.000494066
0.000632943
0.000751103
0.000836412
0.00081751
0.000738167
0.000718951
0.000732213
0.000740576
0.000748009
0.000799395
0.000815264
0.000848684
0.000883466
0.000946132
0.00101562
0.00110887
0.00119854
0.0012785
0.00132384
0.00130401
0.00125367
0.00118888
0.00109096
0.000983022
0.000880096
0.000798693
0.000734464
0.000756158
0.000832597
0.000930118
0.00102557
0.00113472
0.00123334
0.00136968
0.00150893
0.00166891
0.00180139
0.00194826
0.00205677
0.0021817
0.00234618
0.00248512
0.0025139
0.00240875
0.00226502
0.00212285
0.00196895
0.00185531
0.00172959
0.00162142
0.00151225
0.0014215
0.00137053
0.00135637
0.00136419
0.00138604
0.00141381
0.00144658
0.00147868
0.00148802
0.00145701
0.00142447
0.0013878
0.00135006
0.00132971
0.0013102
0.00128726
0.00125457
0.00120703
0.00113291
0.00104142
0.000940834
0.000841628
0.000757529
0.000684117
0.00062481
0.000584352
0.000556189
0.000532763
0.000506063
0.000481233
2.46129e-06
5.12155e-06
1.22939e-05
3.88125e-05
0.00024062
0.000150082
0.000158838
0.000228907
0.000287275
0.000379366
0.000330584
0.000322944
0.000329654
0.000437661
0.000327596
0.000289238
0.000340269
0.000424793
0.000518151
0.000628338
0.000706816
0.000751866
0.000740443
0.000687609
0.000676844
0.000686571
0.000698174
0.000724688
0.000784748
0.000785022
0.000803408
0.000826749
0.000871185
0.000919398
0.000976685
0.0010377
0.00109167
0.0011216
0.00107899
0.00102893
0.000963573
0.00089238
0.000824165
0.00076945
0.000742433
0.000741201
0.000816176
0.000934923
0.00106496
0.00116863
0.00127772
0.00136709
0.00150453
0.00166381
0.0018331
0.00196499
0.00209906
0.00221245
0.00233011
0.00247384
0.00259108
0.00261248
0.00249495
0.00231674
0.00215048
0.00198962
0.00187095
0.00173306
0.00161739
0.00150733
0.00142064
0.00137502
0.00136352
0.00137306
0.00139499
0.00142392
0.00145901
0.00149248
0.00150577
0.00147252
0.00143922
0.00140066
0.00136563
0.00134736
0.0013269
0.00130536
0.00126879
0.00121711
0.00114114
0.00104673
0.000945125
0.000844461
0.000759113
0.000685175
0.000626588
0.00058638
0.000558212
0.000534571
0.000507599
0.000483215
3.17605e-05
2.07669e-05
3.20156e-05
7.88931e-05
0.000323414
0.000238042
0.000318377
0.000435084
0.000480478
0.000433328
0.000436124
0.000399632
0.000371189
0.000406
0.000357118
0.000345342
0.000399835
0.00046386
0.000513325
0.000591441
0.000640275
0.000673805
0.000695104
0.000645236
0.000636681
0.000650031
0.000678878
0.000708411
0.000752078
0.000767613
0.000789128
0.000813148
0.000854182
0.000884625
0.000918316
0.000955706
0.000979383
0.000979038
0.00091523
0.000857225
0.000801373
0.000756389
0.000719741
0.000711961
0.000737098
0.000783305
0.000896767
0.00104732
0.00121157
0.0013321
0.00141943
0.00149923
0.00163839
0.00180713
0.00198038
0.00211636
0.00223579
0.00235295
0.00246963
0.00258487
0.00267597
0.00268114
0.00254783
0.00234589
0.00216048
0.00199686
0.00186949
0.00172662
0.00160972
0.0014994
0.00141816
0.00137785
0.00136927
0.00138068
0.00140348
0.00143337
0.00147071
0.00150519
0.001522
0.00148773
0.00145387
0.00141444
0.00138191
0.00136465
0.00134382
0.0013227
0.0012823
0.00122722
0.00114976
0.00105191
0.000949045
0.000847207
0.000760706
0.000686364
0.000628446
0.000588459
0.000560282
0.000536436
0.000509277
0.000485289
0.000153848
6.27793e-05
6.71354e-05
0.000106398
0.000255483
0.000268733
0.000413604
0.000545891
0.000520327
0.000487675
0.000494601
0.000500283
0.000451938
0.000417145
0.000398649
0.000429584
0.000471976
0.000510135
0.000531273
0.000546471
0.000580765
0.000607269
0.000613221
0.000596796
0.000607657
0.000637609
0.000672411
0.000700903
0.000739432
0.000778235
0.000810874
0.000836683
0.000852807
0.000871012
0.000901005
0.000935049
0.000934472
0.000891651
0.000784904
0.000715966
0.000674665
0.000661109
0.000663286
0.00070358
0.000774669
0.000862458
0.00100878
0.00118222
0.00137903
0.00151595
0.00157319
0.0016546
0.0017958
0.00196065
0.00213116
0.00227087
0.00238042
0.00250269
0.00261853
0.00269046
0.00275554
0.00273357
0.00257397
0.00235557
0.00215571
0.00199046
0.00185212
0.00170965
0.0015945
0.00148758
0.00141364
0.0013793
0.00137432
0.00138812
0.00141306
0.00144368
0.00148354
0.00151917
0.00153798
0.00150519
0.00147135
0.00143182
0.00140215
0.00138569
0.00136405
0.00134311
0.00129841
0.00123923
0.00116013
0.00105805
0.000952483
0.000850372
0.000762601
0.000687916
0.000630749
0.000590981
0.000562793
0.000538733
0.000511429
0.000487859
0.000136357
9.99811e-05
9.40034e-05
0.000107491
0.000192612
0.000246218
0.000353543
0.000428049
0.000445335
0.000464912
0.000522107
0.000526604
0.000515257
0.000472377
0.000486907
0.000522139
0.000559938
0.000583287
0.000578515
0.000536892
0.000519106
0.000532979
0.000545436
0.000565588
0.000612976
0.000657527
0.000688353
0.000721897
0.000767327
0.000809298
0.000840208
0.000856502
0.00085272
0.000858349
0.00089327
0.000939599
0.000892307
0.000801785
0.000697234
0.000636915
0.000617662
0.000647022
0.0006988
0.000767194
0.000871588
0.000990783
0.00115047
0.00133026
0.00152498
0.0016543
0.00172132
0.00183597
0.0019722
0.00212295
0.00227054
0.00241442
0.00252947
0.00263416
0.00272247
0.0027669
0.00280133
0.00273734
0.00255677
0.00233809
0.00213119
0.00196236
0.00181556
0.00167947
0.00156988
0.00147268
0.00140659
0.00137806
0.00137709
0.0013938
0.00142084
0.0014538
0.00149562
0.00153219
0.00155252
0.00152293
0.00149166
0.0014535
0.00142682
0.00140971
0.0013869
0.00136421
0.00131635
0.0012527
0.00117078
0.00106346
0.000955316
0.00085282
0.000764729
0.000689867
0.000633519
0.000593906
0.000565708
0.000541479
0.000514102
0.000490937
4.10963e-05
0.000113874
0.0001058
0.000110771
0.000160215
0.000201346
0.000246309
0.000288581
0.000324993
0.000369763
0.000449105
0.000496041
0.000516725
0.000530572
0.000552383
0.000615755
0.00063272
0.000606854
0.000566339
0.000508967
0.000482572
0.000486332
0.000512107
0.00055807
0.000618426
0.000652907
0.000682733
0.000738553
0.000792254
0.000844142
0.000879333
0.000891828
0.000883672
0.000889881
0.000892009
0.000868854
0.000795453
0.000725809
0.000663407
0.00062303
0.000632127
0.000714069
0.000813106
0.00090833
0.00102613
0.00114978
0.00129688
0.00145669
0.00162323
0.00174148
0.0018438
0.0019923
0.00211643
0.00225373
0.00237828
0.00253081
0.00265836
0.00271608
0.00276225
0.00278784
0.00278595
0.00268851
0.00250647
0.00230172
0.00210054
0.00191814
0.00176834
0.00164206
0.00154277
0.00145932
0.00139822
0.00137416
0.00137673
0.00139634
0.00142566
0.00146196
0.00150509
0.00154242
0.00156335
0.0015396
0.00151104
0.00147656
0.00145289
0.00143284
0.00140878
0.00138369
0.00133348
0.00126549
0.00118002
0.00106857
0.000957033
0.000854666
0.000766785
0.000691919
0.00063636
0.000596792
0.000568594
0.000544296
0.000516903
0.000494081
1.08958e-05
8.75924e-05
9.77586e-05
0.000108454
0.000133732
0.000139308
0.000146611
0.000172859
0.000213199
0.000264409
0.000339797
0.000429729
0.000498656
0.000553874
0.000602087
0.000649318
0.000664493
0.000610475
0.00052925
0.000478292
0.000462168
0.000480785
0.000519314
0.000578553
0.000617128
0.000627551
0.000635493
0.000695745
0.000748237
0.000818685
0.000868977
0.000877678
0.000891429
0.000903977
0.000841959
0.000773076
0.000696407
0.000648332
0.000626104
0.000623045
0.000676178
0.000809995
0.000953568
0.00109144
0.00124072
0.00133352
0.00144028
0.00155737
0.00168756
0.00180103
0.0019366
0.00210526
0.00222336
0.00233283
0.00244857
0.00260081
0.00272385
0.00273928
0.00274935
0.00275536
0.00272058
0.0026102
0.0024324
0.00224984
0.0020432
0.00186
0.00171386
0.00159957
0.00151173
0.00144058
0.00138889
0.00136791
0.00137324
0.00139562
0.00142744
0.00146811
0.00151192
0.00154966
0.00157133
0.00155577
0.00152999
0.00150039
0.00147766
0.00145564
0.00142928
0.00140125
0.00134961
0.0012773
0.00118695
0.0010707
0.000957635
0.000856049
0.000768152
0.000694004
0.000639173
0.000599578
0.000571403
0.000547148
0.00051977
0.000497251
3.99735e-06
4.38789e-05
7.17822e-05
9.01481e-05
9.76342e-05
8.36954e-05
8.16357e-05
0.000101543
0.000137831
0.000187727
0.00025831
0.000354926
0.00045404
0.000544798
0.000603911
0.000663998
0.000657357
0.000592842
0.00051222
0.000458908
0.000456525
0.000489527
0.000530914
0.000586192
0.000601644
0.000593723
0.000601238
0.000621929
0.000650129
0.000709709
0.000717076
0.000714495
0.000744139
0.000743683
0.000684762
0.000624873
0.000580787
0.000560135
0.000577108
0.000628904
0.000745574
0.000931392
0.00111752
0.00129424
0.001445
0.00149809
0.00155452
0.00162709
0.00172814
0.00183775
0.00200267
0.00217304
0.0022822
0.00236857
0.00248947
0.0026201
0.00272117
0.00272139
0.00269811
0.00268162
0.00262048
0.00250493
0.00233788
0.0021712
0.0019654
0.00179175
0.00165442
0.00155343
0.00147689
0.00141697
0.00137533
0.00135979
0.00136663
0.00139167
0.00142634
0.00147217
0.00151735
0.00155388
0.0015769
0.00156957
0.0015486
0.00152431
0.00150225
0.0014763
0.001448
0.0014169
0.00136459
0.00128781
0.00119155
0.00107125
0.000957249
0.000857078
0.000769069
0.000695668
0.00064184
0.000602202
0.000574093
0.000549974
0.000522637
0.000500405
3.03269e-06
2.10697e-05
4.51116e-05
6.32024e-05
6.48083e-05
5.72782e-05
6.27307e-05
8.03596e-05
0.000109885
0.000154726
0.000218051
0.00029735
0.000398284
0.000494055
0.000562152
0.000620737
0.000605665
0.000554122
0.000495819
0.000454571
0.00044918
0.000473052
0.000512716
0.000557772
0.00057118
0.000567153
0.000547135
0.000518142
0.000513857
0.000539313
0.000517038
0.000500307
0.000522048
0.000525112
0.000505797
0.000476097
0.000470509
0.000486039
0.000551775
0.000671552
0.00085616
0.00107894
0.00129033
0.00146828
0.00158244
0.00161071
0.00162885
0.00166248
0.00174311
0.00185233
0.00202646
0.00218927
0.00229154
0.00237609
0.00248561
0.0025935
0.00266867
0.00266257
0.00261992
0.00258006
0.00249757
0.00237748
0.00222643
0.00206965
0.00188229
0.0017173
0.00159175
0.00150461
0.00143951
0.00139038
0.00135793
0.0013476
0.00135689
0.00138461
0.00142241
0.00147283
0.00151764
0.0015551
0.00158022
0.00158035
0.00156668
0.00154787
0.00152379
0.00149491
0.00146468
0.00143045
0.0013764
0.00129662
0.00119422
0.00107031
0.000955876
0.000856638
0.000769208
0.000696991
0.000643641
0.000604608
0.000576619
0.000552704
0.00052544
0.000503504
4.26196e-06
2.10491e-05
3.954e-05
5.32672e-05
6.16882e-05
7.52579e-05
9.23016e-05
0.000106216
0.000125974
0.000163144
0.000222873
0.000295696
0.000377027
0.000459211
0.000520051
0.000581665
0.000585103
0.000552505
0.000515873
0.000482267
0.000474109
0.000466553
0.000486707
0.000534136
0.000550657
0.00052891
0.000461556
0.000406484
0.000373908
0.000370105
0.000358241
0.000356306
0.000368449
0.000370056
0.000370274
0.000375387
0.000398337
0.000451208
0.000573134
0.000768696
0.00102908
0.00126361
0.00145448
0.00159575
0.00166537
0.00166843
0.00165211
0.00166604
0.00173385
0.00184609
0.00201898
0.00216182
0.00226138
0.00235069
0.00244435
0.00252825
0.0025811
0.00256882
0.00253004
0.00246137
0.0023603
0.00223787
0.00210277
0.0019559
0.00179019
0.00163866
0.00152718
0.00145389
0.00140025
0.00136218
0.00133881
0.00133182
0.00134411
0.00137464
0.00141571
0.00146956
0.00151422
0.00155346
0.00158134
0.00158814
0.00158386
0.0015708
0.00154239
0.00151124
0.00147918
0.00144165
0.00138538
0.00130188
0.00119362
0.00106788
0.000953501
0.000855203
0.000768687
0.000697899
0.000645085
0.000606759
0.000578941
0.000554976
0.000528124
0.000506439
7.32415e-06
3.55416e-05
6.53872e-05
8.491e-05
0.000108755
0.000140132
0.00015676
0.000158051
0.000161382
0.000184398
0.000237938
0.000316436
0.000389141
0.000458147
0.000528513
0.000613605
0.000635941
0.000602814
0.000558818
0.000526376
0.000499535
0.000462095
0.000469559
0.000502578
0.00051829
0.000468965
0.000401284
0.000327864
0.000277803
0.000264489
0.000267997
0.0002787
0.000280962
0.000282096
0.000292144
0.000324515
0.000373941
0.000470684
0.000650417
0.000908684
0.00122067
0.00144462
0.00160235
0.0016794
0.00170256
0.00168647
0.0016397
0.00164367
0.00170473
0.00181997
0.00198819
0.00210249
0.00219926
0.00229046
0.00236666
0.00243288
0.00246825
0.0024504
0.00241109
0.00233291
0.00221444
0.00209251
0.00197239
0.00183735
0.0016915
0.00155816
0.00146178
0.00140193
0.00135955
0.00133084
0.00131543
0.00131287
0.00132851
0.00136201
0.00140634
0.00146251
0.00150773
0.00154924
0.00158027
0.00159331
0.00159767
0.00159085
0.00155835
0.00152502
0.00149146
0.00145019
0.00139154
0.00130388
0.00119073
0.00106395
0.000950105
0.00085285
0.000767519
0.000698327
0.000646203
0.00060862
0.000581022
0.000557028
0.000530645
0.000509209
1.31742e-05
6.29432e-05
0.00012259
0.00016497
0.000204112
0.00023055
0.000225069
0.000204967
0.000188835
0.000192593
0.000230357
0.000304172
0.000386592
0.0004669
0.000565963
0.00066737
0.000706706
0.000650731
0.000580913
0.000527624
0.000464893
0.000425827
0.000433901
0.000451204
0.000459733
0.000412229
0.000358935
0.000285301
0.000241441
0.00022208
0.000225673
0.000238677
0.000240756
0.000242475
0.00026287
0.000315395
0.000398387
0.000545525
0.000780124
0.00107445
0.0013766
0.00157788
0.00170519
0.00173177
0.00170044
0.00166347
0.00161197
0.00160155
0.00166328
0.00177523
0.00192407
0.00201666
0.00211056
0.00220032
0.00226621
0.00231474
0.002337
0.0023152
0.00226645
0.00218654
0.00206425
0.00194591
0.00184028
0.00172417
0.00159254
0.00147802
0.00139645
0.00134929
0.00131778
0.00129722
0.00128825
0.00129137
0.00131039
0.00134697
0.00139446
0.00145223
0.00149873
0.00154271
0.00157708
0.001596
0.00160806
0.00160618
0.00157213
0.00153597
0.00150092
0.00145575
0.00139412
0.00130244
0.00118599
0.00105858
0.000945681
0.000849629
0.000765717
0.000698228
0.000646971
0.000610162
0.000582827
0.000558857
0.000532972
0.000511779
2.42606e-05
0.000107464
0.000207799
0.000279248
0.000319992
0.000312634
0.000269461
0.000228642
0.000199415
0.000186834
0.000204514
0.000261673
0.000348045
0.000443957
0.000563569
0.000662478
0.000680266
0.000615759
0.000557097
0.000469302
0.000394489
0.000362283
0.00036973
0.000390063
0.000393502
0.000366309
0.000332414
0.000284842
0.000251605
0.000224906
0.00021426
0.000221191
0.000221998
0.000232997
0.000275322
0.000351433
0.000474418
0.000665856
0.00093896
0.00123306
0.00149229
0.00166678
0.00174209
0.00173186
0.00166901
0.00160499
0.0015563
0.00154051
0.0016041
0.00171882
0.00182832
0.00191009
0.00200111
0.00208776
0.00214523
0.00218049
0.00219303
0.00216874
0.00210858
0.00202925
0.00191498
0.00180172
0.00171034
0.00161279
0.00149519
0.00139844
0.00133179
0.00129644
0.00127529
0.00126231
0.00125869
0.00126701
0.00129004
0.00132979
0.00138027
0.00143929
0.00148763
0.00153414
0.0015718
0.00159619
0.0016145
0.00161665
0.00158103
0.00154375
0.00150783
0.0014581
0.00139323
0.00129779
0.00117907
0.00105178
0.000940236
0.000845572
0.00076329
0.000697574
0.00064736
0.000611355
0.000584326
0.000560437
0.000535082
0.00051411
4.56098e-05
0.000176278
0.00031386
0.000397185
0.000414831
0.000357991
0.000278729
0.000228353
0.000198436
0.000178267
0.0001789
0.000214481
0.000287838
0.000379567
0.000487144
0.000550126
0.000537819
0.000488702
0.000453197
0.000370655
0.000313815
0.000294639
0.000306323
0.000329773
0.000350744
0.000351124
0.000345549
0.000337457
0.000305443
0.000260844
0.000231379
0.000216314
0.000215006
0.000242165
0.000311477
0.000420358
0.00059217
0.00082044
0.00108825
0.00134178
0.00155285
0.00168154
0.0017136
0.00167593
0.00159378
0.00151884
0.00147386
0.00147071
0.00152734
0.00163521
0.00171357
0.00178995
0.00187765
0.00196019
0.00200813
0.00203499
0.00204144
0.00201579
0.00195535
0.00187308
0.00177113
0.00167107
0.00158576
0.00150083
0.00140065
0.00132074
0.00126831
0.00124376
0.00123213
0.00122676
0.00122788
0.00124064
0.00126781
0.00131075
0.00136398
0.00142415