/*--------------------------------*- C++ -*----------------------------------*\
  =========                 |
  \\      /  F ield         | OpenFOAM: The Open Source CFD Toolbox
   \\    /   O peration     | Website:  https://openfoam.org
    \\  /    A nd           | Version:  6
     \\/     M anipulation  |
\*---------------------------------------------------------------------------*/
FoamFile
{
    version     2.0;
    format      ascii;
    class       volScalarField;
    location    "0.1";
    object      Yc;
}
// * * * * * * * * * * * * * * * * * * * * * * * * * * * * * * * * * * * * * //

dimensions      [0 0 0 0 0 0 0];

internalField   nonuniform List<scalar> 
8000
(
4.27106e-05
0.000467454
0.00207631
0.00512991
0.0065127
0.00576947
0.00332328
0.00146317
0.000546689
0.000184292
6.00343e-05
2.50199e-05
3.39381e-05
0.00020187
0.00026413
0.000482171
0.00264356
0.00527208
0.00742836
0.0124687
0.0238394
0.0451236
0.0740577
0.0966525
0.106872
0.113534
0.11995
0.125919
0.129625
0.121486
0.129496
0.135458
0.131589
0.121557
0.109849
0.0999816
0.094607
0.0952992
0.101555
0.109111
0.118595
0.131578
0.147774
0.164391
0.176761
0.182469
0.182859
0.180851
0.177066
0.169984
0.163562
0.171005
0.174264
0.176841
0.17923
0.181841
0.185235
0.190231
0.197742
0.208164
0.221179
0.236093
0.25211
0.268415
0.283789
0.298316
0.311815
0.323134
0.334282
0.343562
0.351322
0.360006
0.365214
0.370023
0.371101
0.370876
0.372625
0.373691
0.374682
0.376851
0.381501
0.387291
0.397137
0.411712
0.42684
0.442855
0.460161
0.478595
0.495618
0.514314
0.529227
0.541896
0.553682
0.559632
0.56023
0.561289
0.561231
0.558582
0.55352
0.545452
3.62786e-05
0.000465075
0.00212559
0.00500754
0.00589493
0.00524677
0.00296738
0.00131254
0.000484233
0.00015953
5.12254e-05
2.31161e-05
4.25278e-05
0.000733366
0.000618563
0.000581589
0.00133131
0.00311813
0.00688787
0.0133956
0.0256219
0.0472439
0.0756417
0.0971563
0.106833
0.113163
0.119794
0.126093
0.13049
0.131325
0.136235
0.138346
0.134008
0.124872
0.114459
0.105474
0.100339
0.100762
0.106753
0.112614
0.122689
0.135454
0.150953
0.16658
0.177762
0.182682
0.182861
0.181055
0.177979
0.173164
0.17169
0.172658
0.174466
0.176953
0.179516
0.182421
0.186164
0.191491
0.199218
0.209622
0.222504
0.237203
0.253039
0.269176
0.284416
0.298927
0.31231
0.323574
0.334699
0.344015
0.352625
0.360442
0.365563
0.370294
0.371508
0.37113
0.372842
0.3739
0.374912
0.376986
0.381691
0.387468
0.397319
0.411816
0.426893
0.442866
0.460132
0.478552
0.49598
0.514214
0.529109
0.541732
0.553533
0.559475
0.560031
0.561093
0.561031
0.55838
0.55333
0.545258
3.0248e-05
0.000512772
0.00220962
0.00445334
0.00508036
0.00397103
0.00220038
0.00123686
0.000584671
0.000170111
5.65722e-05
2.42082e-05
5.98921e-05
0.00278093
0.00210497
0.000967997
0.00124274
0.00269689
0.00945761
0.0187676
0.0310123
0.0522205
0.0790134
0.0982662
0.10695
0.112173
0.119513
0.12644
0.131863
0.13611
0.140559
0.141984
0.138088
0.130784
0.122751
0.115498
0.11107
0.110889
0.114821
0.120855
0.12998
0.142568
0.156971
0.170655
0.179559
0.182959
0.182772
0.181296
0.179095
0.176174
0.174193
0.173102
0.174246
0.177356
0.180465
0.183957
0.188308
0.194184
0.202257
0.212632
0.225261
0.239544
0.25502
0.270801
0.285834
0.300245
0.313391
0.324542
0.335602
0.344982
0.35391
0.36135
0.366316
0.37087
0.372228
0.371674
0.373319
0.374358
0.375409
0.377278
0.38211
0.387858
0.397716
0.412036
0.427006
0.442887
0.460067
0.478457
0.495979
0.513984
0.528847
0.541371
0.55321
0.559136
0.559592
0.560662
0.560591
0.557935
0.55293
0.54483
2.50084e-05
0.000746989
0.00266585
0.00412947
0.00381797
0.00266774
0.00134231
0.000582519
0.000223674
7.35858e-05
2.53514e-05
1.65184e-05
4.41161e-05
0.00239561
0.00283581
0.00101393
0.00123814
0.00263124
0.00749267
0.0168169
0.0315055
0.0553677
0.0822933
0.0995684
0.107557
0.109805
0.119381
0.127021
0.133204
0.138846
0.143578
0.145184
0.142409
0.137105
0.131568
0.125814
0.123157
0.123355
0.125879
0.131397
0.139995
0.151861
0.16443
0.175401
0.181513
0.183161
0.182611
0.181554
0.179985
0.177835
0.175822
0.173868
0.173702
0.178792
0.182651
0.186768
0.191687
0.198095
0.206501
0.216828
0.229115
0.24287
0.257888
0.27318
0.28793
0.302205
0.315052
0.326008
0.336938
0.346393
0.355363
0.362684
0.36754
0.371704
0.373189
0.372742
0.37405
0.375053
0.376145
0.378501
0.382753
0.388448
0.398313
0.412355
0.427225
0.442923
0.459964
0.478309
0.495758
0.513627
0.528447
0.540825
0.552122
0.558311
0.558925
0.560008
0.559924
0.55726
0.551962
0.544177
1.68041e-05
0.00153973
0.00211911
0.00387882
0.00274333
0.00164722
0.000711029
0.000272559
9.65945e-05
3.17016e-05
1.39473e-05
1.5957e-05
4.13306e-05
0.000841363
0.00095424
0.000754061
0.00131087
0.00287316
0.00691533
0.0162631
0.0336865
0.0605649
0.086586
0.101244
0.108908
0.113897
0.121188
0.128104
0.134318
0.140355
0.145219
0.147307
0.145984
0.14235
0.138122
0.134318
0.132232
0.13279
0.136514
0.143191
0.150498
0.161205
0.171563
0.179565
0.183191
0.18331
0.182505
0.182148
0.181191
0.179413
0.178224
0.17726
0.178802
0.182725
0.186468
0.190933
0.196173
0.203014
0.211692
0.221936
0.233772
0.246992
0.261492
0.276238
0.290632
0.304736
0.31722
0.32797
0.338634
0.348201
0.35708
0.364147
0.368874
0.372732
0.37434
0.374027
0.375032
0.37598
0.377093
0.379736
0.383594
0.38922
0.39911
0.412751
0.427492
0.442957
0.459819
0.478106
0.495418
0.513144
0.527911
0.540099
0.550951
0.557362
0.558034
0.559135
0.559032
0.556358
0.550828
0.543309
1.02105e-05
0.00114902
0.00325842
0.0026394
0.00156502
0.000870189
0.000337281
0.000167375
4.87822e-05
1.82668e-05
1.38654e-05
2.44572e-05
5.52497e-05
0.000312394
0.000470843
0.000713058
0.00155101
0.00357855
0.00786959
0.0180096
0.0392323
0.0686617
0.0918655
0.10267
0.110448
0.115897
0.122691
0.129062
0.134838
0.140809
0.145525
0.148111
0.148079
0.146314
0.14375
0.141492
0.140423
0.141571
0.14519
0.15074
0.158617
0.168392
0.176863
0.182736
0.184505
0.183585
0.182749
0.183609
0.183615
0.181461
0.18202
0.181823
0.182968
0.187626
0.19154
0.19626
0.20156
0.208711
0.217623
0.227719
0.238972
0.251705
0.265682
0.279896
0.293884
0.307644
0.319833
0.330396
0.341027
0.350383
0.359023
0.365732
0.370278
0.373899
0.375638
0.375517
0.376269
0.377132
0.378227
0.381056
0.384619
0.390279
0.400131
0.413307
0.427817
0.442981
0.459625
0.477842
0.494928
0.512531
0.527235
0.5392
0.549648
0.556318
0.556921
0.558043
0.557919
0.55523
0.549542
0.542232
5.63645e-06
0.000580555
0.00184451
0.00121277
0.000700065
0.000458059
0.000237237
8.53664e-05
2.79055e-05
1.89671e-05
2.49734e-05
5.07748e-05
0.00010205
0.000228236
0.000413648
0.000887853
0.00212545
0.00480956
0.0102727
0.0230389
0.0491191
0.0779388
0.0970394
0.106614
0.112601
0.116489
0.123684
0.129819
0.134518
0.140446
0.144758
0.147423
0.148378
0.148248
0.147856
0.147312
0.147191
0.148316
0.15165
0.157012
0.164496
0.173039
0.180553
0.184884
0.185908
0.184657
0.182989
0.186382
0.187791
0.187963
0.188118
0.188222
0.18915
0.193812
0.19771
0.202534
0.207747
0.214689
0.224106
0.233996
0.244496
0.256844
0.270409
0.284029
0.297495
0.310899
0.322824
0.3332
0.343721
0.352883
0.36119
0.3674
0.371717
0.375152
0.377045
0.377199
0.377772
0.378494
0.379522
0.382483
0.385813
0.391531
0.40121
0.413897
0.428191
0.442983
0.459376
0.477515
0.494302
0.511786
0.526417
0.538135
0.548167
0.554385
0.555587
0.556736
0.556587
0.55388
0.548085
0.540947
2.95294e-06
0.000257326
0.000812152
0.000536875
0.000291648
0.000157194
9.2165e-05
3.79105e-05
2.56359e-05
3.52419e-05
5.59276e-05
0.000116855
0.000274106
0.000352254
0.000546301
0.00126878
0.00311187
0.00710125
0.0147869
0.030747
0.0587521
0.0865787
0.101584
0.109661
0.114291
0.118797
0.125309
0.130678
0.135349
0.140189
0.143257
0.145778
0.146841
0.148013
0.15003
0.151404
0.151302
0.152721
0.156002
0.161234
0.168773
0.176471
0.182761
0.186286
0.187458
0.187516
0.188554
0.191139
0.193321
0.194796
0.195324
0.195886
0.196641
0.201026
0.20486
0.209538
0.214721
0.222008
0.231123
0.240641
0.250169
0.262162
0.275284
0.288548
0.301644
0.314513
0.326118
0.336276
0.346683
0.35559
0.363487
0.369094
0.373157
0.376445
0.378489
0.378807
0.379546
0.380029
0.380962
0.383814
0.387165
0.39298
0.402293
0.414485
0.428606
0.442947
0.459061
0.476748
0.493555
0.510908
0.525453
0.53691
0.546488
0.552344
0.55404
0.555217
0.555039
0.55231
0.546445
0.539459
1.41516e-06
0.00010343
0.000334004
0.00025146
0.000118255
5.63857e-05
3.80623e-05
3.34676e-05
4.90368e-05
7.95115e-05
0.000130278
0.000280563
0.000983585
0.00088114
0.000959019
0.00200169
0.00474414
0.010931
0.0221373
0.0411505
0.0703721
0.0950453
0.10803
0.113855
0.115324
0.119375
0.126604
0.131585
0.134974
0.139744
0.142629
0.144098
0.144157
0.145821
0.148551
0.150845
0.15303
0.154506
0.158405
0.163851
0.170851
0.177879
0.183384
0.186937
0.188951
0.190718
0.193318
0.196431
0.199566
0.202091
0.203239
0.2044
0.206102
0.208806
0.212693
0.217071
0.222164
0.229551
0.238394
0.247552
0.256339
0.267975
0.280737
0.293395
0.306043
0.318341
0.329648
0.33954
0.349835
0.358254
0.365746
0.370762
0.374559
0.377735
0.379669
0.380344
0.381358
0.381679
0.382506
0.385264
0.388636
0.394563
0.403352
0.415047
0.428631
0.442886
0.458674
0.475924
0.492694
0.509897
0.524341
0.535533
0.544662
0.55022
0.55229
0.553488
0.553277
0.550523
0.544617
0.537771
7.10525e-07
3.99538e-05
0.000111193
9.80099e-05
5.37411e-05
4.02434e-05
4.65806e-05
7.05637e-05
0.000118634
0.000181511
0.000286657
0.000651299
0.00321274
0.00264002
0.00206611
0.00334931
0.00727978
0.0164962
0.0324863
0.0560065
0.0844316
0.103495
0.113725
0.118206
0.120356
0.122886
0.128739
0.133188
0.136612
0.139766
0.141833
0.142683
0.1412
0.141956
0.146233
0.149137
0.151689
0.154338
0.158812
0.164571
0.171427
0.178026
0.183243
0.187197
0.190397
0.194021
0.198172
0.20206
0.206282
0.209818
0.211648
0.213415
0.215583
0.217246
0.221282
0.22501
0.229475
0.236814
0.24579
0.254621
0.26317
0.274295
0.286349
0.298537
0.310421
0.322231
0.333352
0.34294
0.352864
0.361137
0.367838
0.372343
0.375885
0.378979
0.3809
0.381803
0.383147
0.383379
0.384052
0.386927
0.390104
0.396167
0.404374
0.415566
0.428341
0.44277
0.458208
0.475031
0.491725
0.508751
0.523078
0.534011
0.542642
0.547989
0.550341
0.551554
0.551306
0.548522
0.542596
0.535885
1.13089e-06
1.73334e-05
4.70876e-05
5.38727e-05
6.45468e-05
9.13105e-05
0.000122234
0.0001892
0.00029531
0.000430191
0.000618358
0.00137198
0.00738034
0.00687775
0.00434531
0.00531839
0.0102601
0.0225195
0.04348
0.0684304
0.0930148
0.109217
0.117733
0.122147
0.124568
0.126861
0.13086
0.13491
0.137551
0.13953
0.141263
0.142159
0.142279
0.144149
0.146696
0.147235
0.150882
0.152936
0.158494
0.164422
0.170977
0.177489
0.182871
0.187533
0.192194
0.197756
0.203635
0.208204
0.213002
0.217829
0.220492
0.222718
0.22503
0.226008
0.229702
0.233181
0.237523
0.244616
0.25329
0.261736
0.270213
0.280399
0.291927
0.30381
0.315069
0.32616
0.3372
0.346446
0.355774
0.363771
0.369707
0.373788
0.3771
0.380139
0.382106
0.383164
0.384467
0.384756
0.385729
0.388722
0.391763
0.397764
0.405335
0.416029
0.428077
0.442603
0.457659
0.474052
0.490653
0.507493
0.521663
0.532349
0.540442
0.545639
0.548199
0.549418
0.549129
0.546311
0.54043
0.533807
6.86956e-06
2.40988e-05
5.35988e-05
0.000106074
0.000208851
0.000311625
0.000401163
0.000549533
0.000766434
0.00109556
0.0014223
0.00259585
0.00881474
0.0109116
0.0071218
0.00763982
0.0138304
0.0286859
0.054069
0.0794384
0.10016
0.113292
0.12034
0.12563
0.128372
0.129488
0.132142
0.136794
0.138361
0.139051
0.140996
0.142469
0.14361
0.14563
0.147955
0.149975
0.152405
0.154479
0.158812
0.164507
0.170619
0.176994
0.182893
0.188551
0.194697
0.20226
0.209943
0.215452
0.221601
0.225986
0.229533
0.231792
0.234033
0.234919
0.238328
0.241498
0.24597
0.252698
0.260746
0.268941
0.277111
0.286312
0.29747
0.308924
0.319741
0.33007
0.341041
0.349919
0.358537
0.365783
0.371356
0.375067
0.378169
0.381178
0.383251
0.384408
0.385814
0.386119
0.387482
0.390164
0.393353
0.399315
0.406214
0.41643
0.427792
0.442382
0.457029
0.472977
0.489483
0.50554
0.520099
0.530596
0.538071
0.54316
0.545868
0.547083
0.54675
0.543894
0.538073
0.531537
6.29943e-05
0.000141433
0.00023252
0.00045005
0.000869189
0.00113675
0.00139951
0.001729
0.00220528
0.00300528
0.00365843
0.00514088
0.0112817
0.0136003
0.00939167
0.0104045
0.0185536
0.0359503
0.0623602
0.0888591
0.106561
0.117065
0.123128
0.129472
0.132123
0.134484
0.137213
0.140273
0.139184
0.141603
0.141428
0.143904
0.145398
0.1475
0.150066
0.152312
0.154389
0.15657
0.160383
0.165035
0.170206
0.17707
0.183972
0.190714
0.197805
0.207689
0.216713
0.223946
0.230698
0.23462
0.239169
0.241286
0.243295
0.24409
0.246872
0.249661
0.254078
0.260519
0.268156
0.275944
0.283768
0.292268
0.302856
0.313925
0.324251
0.33381
0.344153
0.352456
0.361028
0.36763
0.372777
0.376147
0.379059
0.382062
0.384304
0.385515
0.387116
0.387372
0.389264
0.391592
0.394827
0.400777
0.406991
0.416765
0.427445
0.442106
0.456328
0.471795
0.488218
0.503443
0.51843
0.528005
0.535535
0.540547
0.543351
0.544554
0.544174
0.541322
0.53553
0.529081
0.000792186
0.00108865
0.00128341
0.00171307
0.00303513
0.00383881
0.00463689
0.00552786
0.00676019
0.00905214
0.00948453
0.0103993
0.0149771
0.0158631
0.0120423
0.0146597
0.0258316
0.0469412
0.074587
0.0984073
0.112378
0.121051
0.12784
0.134457
0.137195
0.139945
0.14214
0.144745
0.14509
0.146244
0.145718
0.14724
0.14803
0.149
0.15256
0.154846
0.156401
0.158357
0.161666
0.167141
0.172909
0.17954
0.186657
0.194415
0.202917
0.214604
0.22493
0.233508
0.240176
0.2441
0.249143
0.251115
0.252752
0.253009
0.25553
0.25796
0.261812
0.268317
0.275212
0.2826
0.290212
0.298209
0.307972
0.318727
0.328285
0.337306
0.346444
0.354668
0.363211
0.3692
0.373953
0.377001
0.379742
0.382755
0.385241
0.386465
0.38834
0.388483
0.390669
0.392939
0.396145
0.401738
0.407649
0.417032
0.427003
0.44178
0.455584
0.470495
0.486868
0.50122
0.516075
0.525254
0.532839
0.537796
0.540651
0.541834
0.541405
0.53855
0.532802
0.526442
0.0106923
0.0071876
0.00536512
0.00523721
0.00928656
0.0112709
0.0144346
0.0174397
0.0192858
0.0205593
0.0209053
0.0185936
0.0204365
0.0189207
0.0163275
0.0215659
0.0363108
0.0589789
0.0846654
0.106643
0.119148
0.128493
0.135229
0.140995
0.143055
0.14546
0.146788
0.150111
0.151186
0.15215
0.151697
0.152637
0.152748
0.155017
0.156011
0.157864
0.159076
0.159193
0.164753
0.170463
0.176153
0.182732
0.190702
0.199374
0.210537
0.223074
0.234833
0.243604
0.249949
0.253897
0.259231
0.260758
0.262006
0.262004
0.264179
0.266305
0.269648
0.275561
0.281751
0.288981
0.296439
0.303925
0.31296
0.323303
0.332179
0.340148
0.348369
0.356414
0.36503
0.370443
0.374864
0.377607
0.380193
0.383229
0.386041
0.387238
0.389445
0.389415
0.391933
0.394162
0.397283
0.402648
0.40818
0.416695
0.426452
0.440991
0.454328
0.469071
0.485433
0.498852
0.513648
0.522391
0.529985
0.534904
0.53777
0.538927
0.538448
0.535583
0.529894
0.523624
0.0994719
0.0372026
0.0214412
0.0178996
0.0230115
0.0322706
0.0435214
0.0509614
0.0475496
0.0463034
0.0443673
0.0368433
0.0333206
0.0270699
0.0258091
0.0352095
0.0535391
0.0753451
0.0984309
0.117517
0.129342
0.13865
0.145606
0.149494
0.150179
0.151938
0.155151
0.158069
0.159446
0.160119
0.159914
0.160638
0.162554
0.164333
0.164594
0.162632
0.163922
0.167095
0.171244
0.175277
0.180765
0.187486
0.196703
0.207294
0.22118
0.234292
0.247349
0.255837
0.261944
0.266263
0.270682
0.271679
0.272441
0.27247
0.273998
0.275382
0.278429
0.28364
0.288982
0.296422
0.303273
0.310167
0.318424
0.328387
0.336044
0.342753
0.350071
0.357881
0.365878
0.371497
0.375629
0.378027
0.380444
0.383504
0.386805
0.38792
0.390506
0.390265
0.392668
0.39542
0.398408
0.4036
0.40866
0.416225
0.425643
0.439994
0.45273
0.467213
0.483583
0.495935
0.509813
0.518821
0.526389
0.531274
0.534114
0.535234
0.534694
0.531813
0.526207
0.520046
0.24093
0.100283
0.0623436
0.0455085
0.0494261
0.0697202
0.0939041
0.100231
0.088503
0.082684
0.0769843
0.0627599
0.0530157
0.0417047
0.0411482
0.0538894
0.0748841
0.0976085
0.117096
0.130967
0.142192
0.151111
0.156969
0.159914
0.159872
0.163027
0.166388
0.168958
0.171236
0.173079
0.173973
0.175515
0.176243
0.177518
0.176756
0.175982
0.176485
0.17687
0.178485
0.182234
0.187827
0.194648
0.206238
0.218963
0.234798
0.248417
0.26103
0.269918
0.275675
0.279577
0.282632
0.282814
0.283055
0.282819
0.283885
0.28472
0.287234
0.292085
0.296976
0.303812
0.309925
0.31571
0.323713
0.33279
0.339164
0.344464
0.35097
0.358519
0.366312
0.372039
0.375963
0.377989
0.380229
0.38333
0.386372
0.388274
0.390541
0.390825
0.393217
0.396047
0.399297
0.404396
0.408969
0.415516
0.424439
0.43779
0.450657
0.464815
0.480488
0.492094
0.50518
0.514552
0.521945
0.526801
0.529561
0.530633
0.530019
0.527115
0.521622
0.51559
0.305966
0.18702
0.134045
0.0951477
0.0968201
0.133921
0.163325
0.159095
0.139689
0.125808
0.112458
0.0916237
0.0756713
0.0616284
0.0612892
0.0766934
0.095434
0.115713
0.130224
0.143429
0.154528
0.163303
0.168855
0.171575
0.173053
0.176248
0.18006
0.182138
0.187076
0.189148
0.19115
0.192912
0.192629
0.19204
0.191124
0.189657
0.18911
0.187872
0.188545
0.191277
0.198546
0.207765
0.219641
0.233173
0.249196
0.262963
0.274982
0.282652
0.287991
0.291543
0.293741
0.293517
0.293064
0.292563
0.292972
0.293101
0.295109
0.299771
0.303901
0.3094
0.314646
0.320519
0.327233
0.335567
0.340851
0.344868
0.350788
0.358113
0.366129
0.371902
0.375741
0.377396
0.379482
0.382641
0.385626
0.388204
0.390259
0.390896
0.393358
0.396539
0.399822
0.404793
0.40905
0.414584
0.422939
0.435421
0.448276
0.462165
0.47702
0.488315
0.500429
0.510006
0.517207
0.522038
0.524688
0.525707
0.525019
0.522089
0.516722
0.510822
0.324637
0.287427
0.22867
0.174462
0.179847
0.236517
0.26483
0.245441
0.209082
0.178737
0.150425
0.123796
0.100911
0.0841982
0.0837097
0.0966317
0.114794
0.129607
0.141371
0.153361
0.166183
0.17617
0.181848
0.184621
0.187211
0.19026
0.19553
0.197209
0.20324
0.206593
0.211155
0.212759
0.212081
0.210439
0.208228
0.204406
0.202507
0.200183
0.200374
0.203612
0.211703
0.222262
0.234185
0.248067
0.263908
0.276444
0.287466
0.294048
0.299192
0.302219
0.303759
0.303377
0.302234
0.301039
0.301092
0.299985
0.301837
0.306211
0.309548
0.313942
0.317949
0.323749
0.328879
0.336597
0.340436
0.344013
0.349543
0.356676
0.363934
0.369943
0.374988
0.376179
0.378175
0.381428
0.384499
0.387701
0.389696
0.390475
0.39302
0.396702
0.39985
0.404721
0.408155
0.413225
0.421112
0.432867
0.445553
0.459265
0.472933
0.483733
0.495543
0.505174
0.512234
0.516981
0.519508
0.520469
0.519706
0.516751
0.511521
0.505756
0.329947
0.362422
0.327976
0.281093
0.298322
0.369723
0.398347
0.36385
0.305377
0.250739
0.199586
0.156072
0.126943
0.108124
0.104642
0.113944
0.126997
0.139222
0.152331
0.164832
0.178163
0.188516
0.19378
0.198269
0.202462
0.206646
0.212574
0.215592
0.221388
0.227274
0.230182
0.231847
0.231722
0.228548
0.2266
0.220402
0.217138
0.214406
0.21396
0.217472
0.226616
0.237745
0.249955
0.263666
0.276285
0.287665
0.297595
0.303985
0.308716
0.311159
0.312531
0.311324
0.309653
0.308208
0.308094
0.305543
0.307171
0.311529
0.31354
0.316669
0.31951
0.323699
0.328621
0.334966
0.338875
0.342006
0.347297
0.354284
0.36112
0.36733
0.372495
0.374203
0.376298
0.379693
0.382934
0.386635
0.388839
0.389559
0.392163
0.395491
0.399346
0.404181
0.40709
0.411468
0.418937
0.430081
0.442476
0.456132
0.468486
0.479071
0.490496
0.500051
0.506974
0.511669
0.514033
0.514933
0.514095
0.51112
0.506031
0.500404
0.331247
0.395346
0.402665
0.384619
0.413289
0.48024
0.512182
0.484081
0.415891
0.339521
0.265624
0.203537
0.159313
0.132142
0.125047
0.130142
0.14044
0.151782
0.166176
0.178693
0.191017
0.200685
0.207884
0.214386
0.22061
0.226036
0.23072
0.234856
0.239585
0.243721
0.248739
0.251862
0.250333
0.246954
0.24212
0.23607
0.231217
0.228685
0.228778
0.232893
0.243168
0.253838
0.265282
0.275599
0.286727
0.297102
0.305947
0.310873
0.315076
0.316957
0.317343
0.315092
0.313276
0.313712
0.311866
0.309367
0.310277
0.313085
0.31538
0.317595
0.319332
0.322334
0.326742
0.332267
0.336493
0.338951
0.344137
0.351031
0.357693
0.364107
0.369633
0.371489
0.373853
0.377451
0.380897
0.384656
0.386753
0.388112
0.390788
0.393936
0.398347
0.403234
0.404933
0.409226
0.416409
0.42703
0.439143
0.45287
0.463777
0.474252
0.485276
0.49474
0.501463
0.50607
0.508345
0.509111
0.508202
0.505211
0.500269
0.49478
0.33093
0.401265
0.438014
0.450748
0.481716
0.525974
0.555055
0.553408
0.506257
0.427778
0.339765
0.262746
0.199945
0.162185
0.149682
0.149698
0.158189
0.169467
0.184686
0.195802
0.208845
0.216355
0.224545
0.23182
0.240963
0.244911
0.25041
0.256458
0.258334
0.261934
0.267091
0.271998
0.270366
0.265026
0.258981
0.25298
0.248081
0.244371
0.244901
0.249857
0.258027
0.267337
0.277178
0.285764
0.294626
0.303195
0.309712
0.314482
0.318284
0.319684
0.320174
0.316278
0.314479
0.314644
0.313998
0.310803
0.311062
0.312835
0.315385
0.316704
0.31752
0.319663
0.323492
0.328633
0.331899
0.334922
0.340151
0.347012
0.353664
0.360298
0.366563
0.368102
0.370879
0.374713
0.378378
0.382092
0.384288
0.38615
0.388895
0.391956
0.396916
0.401967
0.402533
0.406575
0.413524
0.423701
0.435441
0.448185
0.458893
0.46922
0.479867
0.489154
0.495681
0.500191
0.502365
0.503016
0.502042
0.499078
0.494249
0.488905
0.329532
0.394791
0.439271
0.467073
0.489948
0.507797
0.530337
0.554975
0.547936
0.492945
0.408934
0.321952
0.246853
0.19951
0.180311
0.176214
0.184166
0.191889
0.205101
0.215121
0.223229
0.232259
0.2442
0.24675
0.254107
0.260386
0.267258
0.270593
0.274854
0.278418
0.281987
0.284311
0.283158
0.279608
0.274372
0.268346
0.263921
0.260264
0.261287
0.264271
0.270308
0.278088
0.286564
0.292981
0.29917
0.306479
0.311266
0.315052
0.318711
0.319494
0.318944
0.314649
0.313073
0.313263
0.3125
0.309885
0.309695
0.31073
0.312446
0.314049
0.314205
0.315785
0.31908
0.324206
0.326621
0.330076
0.33544
0.342331
0.349072
0.35601
0.361791
0.364164
0.367418
0.371506
0.375379
0.37908
0.381456
0.383684
0.386488
0.389513
0.394078
0.399468
0.399835
0.403559
0.410286
0.420083
0.431395
0.443255
0.453748
0.463967
0.474259
0.483308
0.489639
0.494042
0.496112
0.496661
0.495631
0.49269
0.487986
0.482787
0.326904
0.381455
0.417684
0.442097
0.45102
0.450101
0.469351
0.512042
0.541879
0.522855
0.457799
0.374506
0.294821
0.240828
0.215977
0.206711
0.208668
0.213935
0.223582
0.2322
0.240443
0.248548
0.256236
0.261552
0.265355
0.273084
0.278061
0.283588
0.288683
0.290773
0.292582
0.294182
0.293532
0.290608
0.286582
0.281374
0.278341
0.275688
0.276202
0.276844
0.279895
0.285285
0.290919
0.296832
0.300447
0.304507
0.310227
0.312776
0.316824
0.316525
0.314616
0.310593
0.309369
0.309695
0.309813
0.306943
0.306392
0.3069
0.30813
0.308832
0.309574
0.310866
0.313663
0.319314
0.320742
0.324526
0.33009
0.337064
0.343959
0.351212
0.356769
0.359796
0.363506
0.367847
0.371919
0.375646
0.378223
0.380725
0.38358
0.386594
0.390807
0.395626
0.39694
0.400188
0.406732
0.416168
0.427063
0.438174
0.448386
0.458502
0.468447
0.477216
0.483352
0.487632
0.489601
0.490063
0.488984
0.486069
0.481494
0.476445
0.322396
0.361445
0.379867
0.390094
0.385254
0.376136
0.397298
0.452474
0.507788
0.521498
0.481849
0.410593
0.334701
0.278642
0.247144
0.235372
0.230983
0.235531
0.244961
0.251388
0.258816
0.264842
0.269742
0.273589
0.276322
0.281651
0.287145
0.295256
0.301421
0.302631
0.302725
0.301887
0.300936
0.299202
0.296362
0.291629
0.28801
0.28548
0.284805
0.284241
0.284785
0.288797
0.291297
0.295936
0.299004
0.300112
0.304256
0.307996
0.310208
0.31128
0.307213
0.304538
0.303743
0.304196
0.303897
0.302153
0.301422
0.301561
0.302795
0.302733
0.303828
0.305112
0.307355
0.312133
0.314224
0.318404
0.324184
0.331293
0.338382
0.345943
0.351574
0.355091
0.359177
0.363759
0.368009
0.371802
0.374571
0.377279
0.380185
0.383197
0.387139
0.39139
0.392838
0.396464
0.402834
0.411963
0.422428
0.43293
0.442877
0.45283
0.462434
0.470891
0.476833
0.480973
0.482851
0.483236
0.482116
0.479232
0.47479
0.469893
0.314634
0.3321
0.327914
0.322558
0.309851
0.301157
0.327055
0.390944
0.462641
0.500732
0.484882
0.429299
0.361868
0.307901
0.274083
0.259647
0.255136
0.258545
0.264153
0.271049
0.277034
0.280857
0.282928
0.284144
0.286035
0.290797
0.297064
0.306265
0.312711
0.314435
0.314371
0.310035
0.307782
0.306009
0.302914
0.299189
0.294826
0.292505
0.288333
0.285991
0.285386
0.286592
0.287926
0.290185
0.292558
0.293325
0.296505
0.301931
0.301884
0.302065
0.298688
0.296958
0.296566
0.297141
0.296809
0.295932
0.295062
0.294942
0.296981
0.295804
0.297059
0.299016
0.300282
0.304354
0.307155
0.311755
0.317794
0.325076
0.33239
0.34025
0.346217
0.35003
0.354445
0.35926
0.363672
0.367545
0.370497
0.373369
0.376319
0.379329
0.383059
0.386841
0.388487
0.3924
0.398696
0.407473
0.417515
0.427507
0.437241
0.446955
0.45622
0.464349
0.470097
0.474079
0.475877
0.476196
0.475043
0.472195
0.467888
0.463147
0.301148
0.290154
0.26422
0.248696
0.235923
0.232672
0.262843
0.331839
0.413889
0.469763
0.473721
0.434253
0.377587
0.328752
0.296362
0.281613
0.277607
0.280768
0.285852
0.291872
0.295781
0.297218
0.296928
0.296524
0.297452
0.302183
0.309066
0.316091
0.322982
0.325852
0.322644
0.318356
0.314116
0.310989
0.306983
0.302411
0.297817
0.293366
0.287816
0.284523
0.282476
0.28184
0.281834
0.282343
0.285363
0.28474
0.287253
0.291933
0.29204
0.291688
0.289179
0.288163
0.28814
0.28884
0.288742
0.28861
0.287547
0.28723
0.288747
0.287996
0.28932
0.29065
0.292508
0.296247
0.299639
0.304663
0.310989
0.318477
0.326035
0.334216
0.340714
0.344624
0.349334
0.354363
0.358927
0.362892
0.366003
0.36901
0.372006
0.375012
0.378578
0.381992
0.383893
0.38801
0.39424
0.402703
0.412345
0.421957
0.431431
0.440881
0.449807
0.457605
0.463155
0.466968
0.468696
0.468957
0.46778
0.464977
0.460802
0.456225
0.277768
0.234331
0.194205
0.17701
0.170277
0.17376
0.205568
0.275086
0.363313
0.432715
0.45374
0.429793
0.385015
0.343442
0.31529
0.302699
0.300104
0.303211
0.307405
0.311307
0.312534
0.311271
0.308888
0.307309
0.307806
0.311402
0.318678
0.326537
0.331022
0.332655
0.33092
0.326506
0.31978
0.314084
0.308379
0.302763
0.297144
0.289884
0.283673
0.2798
0.276956
0.275109
0.273941
0.272886
0.274154
0.274552
0.276811
0.280737
0.281006
0.280556
0.27883
0.278399
0.278711
0.279548
0.279784
0.280467
0.27907
0.278628
0.279825
0.279442
0.280758
0.281734
0.284177
0.287852
0.291767
0.297206
0.303832
0.311546
0.319354
0.327796
0.335399
0.33887
0.343858
0.349089
0.353787
0.35785
0.361105
0.364222
0.367262
0.370264
0.373706
0.376867
0.379107
0.383311
0.389471
0.397663
0.40693
0.416217
0.425442
0.434615
0.443198
0.450673
0.456021
0.45966
0.461324
0.461534
0.460341
0.457592
0.453575
0.449142
0.236579
0.167364
0.125742
0.114554
0.116175
0.12565
0.155981
0.220738
0.310445
0.390328
0.427627
0.418854
0.386633
0.353854
0.331604
0.32236
0.321344
0.323978
0.3264
0.327181
0.325019
0.320675
0.316262
0.313775
0.314995
0.317754
0.324429
0.332203
0.339591
0.339834
0.337944
0.33282
0.323681
0.315084
0.306869
0.299508
0.293096
0.283461
0.276291
0.272224
0.27061
0.266753
0.265764
0.262387
0.262466
0.263447
0.265534
0.268757
0.26917
0.268946
0.267835
0.267889
0.268498
0.269479
0.270045
0.272254
0.269785
0.269288
0.27047
0.270276
0.271648
0.272624
0.275441
0.27922
0.283613
0.289453
0.296388
0.304335
0.312384
0.32101
0.328357
0.332748
0.338034
0.343449
0.348275
0.35243
0.355812
0.359025
0.362115
0.365118
0.368472
0.37149
0.374028
0.378323
0.384409
0.392365
0.401314
0.410289
0.419273
0.428158
0.4364
0.443566
0.448705
0.452176
0.453779
0.453943
0.452743
0.450057
0.446197
0.441915
0.180186
0.0976401
0.0682276
0.0669324
0.075611
0.0889888
0.115525
0.170523
0.255576
0.342756
0.396067
0.402396
0.383133
0.360145
0.34465
0.339027
0.339129
0.34052
0.340181
0.336987
0.330837
0.323309
0.31674
0.313648
0.314509
0.319049
0.326637
0.335151
0.34168
0.343704
0.341729
0.337628
0.324256
0.313766
0.302391
0.292617
0.286576
0.274213
0.266472
0.262355
0.260012
0.256565
0.253816
0.251064
0.250789
0.251945
0.253798
0.256368
0.256895
0.25696
0.256396
0.256843
0.257704
0.258819
0.259637
0.261536
0.259738
0.259363
0.260649
0.260607
0.262075
0.263269
0.266408
0.270404
0.275246
0.281469
0.288709
0.296887
0.305165
0.313918
0.321034
0.326287
0.33188
0.337462
0.342401
0.346649
0.350146
0.353434
0.356581
0.359598
0.362899
0.36586
0.368662
0.373047
0.379068
0.386818
0.39548
0.404178
0.412925
0.421519
0.42942
0.436293
0.441221
0.444533
0.446073
0.446199
0.445
0.442385
0.438684
0.434558
0.0112336
0.0156348
0.020991
0.0306538
0.0435966
0.0590505
0.0817057
0.122551
0.189581
0.269584
0.336285
0.364928
0.366456
0.360175
0.356102
0.355917
0.356609
0.354804
0.34874
0.338459
0.325733
0.313549
0.304833
0.301987
0.305014
0.312777
0.323053
0.333399
0.341013
0.343994
0.340898
0.331701
0.317371
0.308419
0.291168
0.276714
0.265935
0.255373
0.248234
0.244303
0.243013
0.238878
0.234969
0.232993
0.23265
0.233607
0.234831
0.236347
0.236939
0.237406
0.237615
0.238537
0.23972
0.241008
0.242164
0.243169
0.242681
0.242716
0.244182
0.244591
0.246202
0.247908
0.251544
0.256002
0.261534
0.268338
0.276057
0.284586
0.293195
0.302083
0.309155
0.315409
0.32147
0.327291
0.332395
0.336776
0.340454
0.343893
0.347093
0.35015
0.353421
0.356398
0.359588
0.364105
0.370088
0.377511
0.385749
0.394054
0.402414
0.410547
0.417965
0.424336
0.428918
0.431997
0.433433
0.433508
0.432324
0.429839
0.426391
0.42253
0.00136824
0.00310863
0.00616464
0.0115114
0.0189782
0.0278383
0.0390543
0.0584662
0.0946956
0.147208
0.204291
0.252293
0.28008
0.29399
0.302213
0.307469
0.309289
0.305803
0.29589
0.281449
0.267172
0.257609
0.255327
0.260661
0.271902
0.286374
0.30105
0.313414
0.321336
0.32362
0.319115
0.307782
0.291804
0.276427
0.259585
0.246267
0.235374
0.225969
0.219675
0.216352
0.215829
0.212283
0.209178
0.208008
0.207962
0.208677
0.209619
0.210952
0.211655
0.212338
0.212773
0.213723
0.214917
0.216235
0.217513
0.218322
0.218673
0.219222
0.220833
0.222012
0.224153
0.226731
0.230966
0.236078
0.242368
0.249811
0.258052
0.266971
0.275894
0.284858
0.292278
0.299294
0.305752
0.311794
0.317058
0.321609
0.325505
0.329122
0.332464
0.335641
0.339045
0.342285
0.345914
0.350651
0.356583
0.363674
0.371486
0.379319
0.387173
0.394698
0.401477
0.407188
0.411333
0.414087
0.415365
0.415379
0.414255
0.411978
0.408894
0.405413
0.000198621
0.000792436
0.0019414
0.00401474
0.00714039
0.011155
0.0161322
0.0235664