/*--------------------------------*- C++ -*----------------------------------*\
  =========                 |
  \\      /  F ield         | OpenFOAM: The Open Source CFD Toolbox
   \\    /   O peration     | Website:  https://openfoam.org
    \\  /    A nd           | Version:  6
     \\/     M anipulation  |
\*---------------------------------------------------------------------------*/
FoamFile
{
    version     2.0;
    format      ascii;
    class       volScalarField;
    location    "0.1";
    object      Z;
}
// * * * * * * * * * * * * * * * * * * * * * * * * * * * * * * * * * * * * * //

dimensions      [0 0 0 0 0 0 0];

internalField   nonuniform List<scalar> 
8000
(
0.0138565
0.0208309
0.0438271
0.107991
0.1634
0.118928
0.0683676
0.039722
0.0256133
0.0192723
0.0169715
0.0169587
0.0185346
0.0230752
0.0234502
0.0242169
0.0416698
0.17688
0.0612023
0.0402938
0.0414362
0.0541354
0.079785
0.116565
0.154109
0.180742
0.189688
0.190367
0.194427
0.251146
0.20212
0.144165
0.113501
0.0952537
0.0837302
0.0760805
0.0723918
0.0744171
0.0861308
0.0998721
0.0910957
0.0876344
0.0924339
0.10357
0.119029
0.137629
0.157682
0.179655
0.206062
0.250877
0.27478
0.243918
0.235454
0.233451
0.234182
0.236395
0.238508
0.238946
0.236862
0.232342
0.225712
0.21725
0.207343
0.196827
0.185996
0.176487
0.169684
0.165996
0.160647
0.15774
0.157708
0.149162
0.149723
0.147184
0.147962
0.152609
0.152502
0.154459
0.157962
0.1591
0.155331
0.154484
0.15027
0.145683
0.140003
0.132908
0.127479
0.122184
0.119456
0.109608
0.102986
0.097565
0.0937983
0.0910028
0.0849936
0.0819153
0.0799513
0.0784918
0.078217
0.0737506
0.0138169
0.0210397
0.0457832
0.115165
0.18262
0.119366
0.0654022
0.0380781
0.0248064
0.0190247
0.017099
0.0174044
0.019775
0.0323549
0.0309123
0.026191
0.0292778
0.0408388
0.04466
0.0453294
0.0459266
0.0574884
0.0827073
0.119199
0.156776
0.184147
0.191385
0.190209
0.190312
0.198445
0.168236
0.136076
0.112306
0.0972829
0.0882801
0.0817661
0.0779824
0.0794
0.0914774
0.127539
0.0997317
0.0918024
0.0956717
0.106565
0.121798
0.140227
0.159623
0.18005
0.202272
0.227707
0.236741
0.236198
0.235198
0.2343
0.234846
0.236713
0.238436
0.238482
0.236158
0.231638
0.225105
0.216713
0.206849
0.196396
0.185606
0.176114
0.169345
0.165793
0.160487
0.157398
0.15512
0.148864
0.149681
0.147004
0.147813
0.15256
0.152324
0.154333
0.157773
0.159188
0.155219
0.154478
0.150147
0.145597
0.140045
0.132839
0.127409
0.122128
0.118048
0.109531
0.102946
0.0975209
0.0937625
0.0909915
0.0849519
0.0818852
0.0799228
0.0784636
0.0782187
0.0737209
0.014099
0.0230271
0.0550523
0.158111
0.128785
0.0867946
0.0514492
0.0373842
0.0263127
0.0194241
0.0179391
0.0179833
0.0210576
0.0586624
0.0587692
0.0346611
0.0277845
0.0313253
0.0652515
0.114312
0.0650178
0.0660893
0.089244
0.124763
0.161829
0.192516
0.194899
0.190026
0.184815
0.176292
0.154702
0.131489
0.11312
0.102112
0.0984565
0.0958714
0.090758
0.0906427
0.0945295
0.100251
0.0960809
0.096224
0.101738
0.112662
0.127555
0.145669
0.163977
0.182016
0.199647
0.215875
0.227026
0.235962
0.238638
0.236513
0.235981
0.237084
0.238136
0.23748
0.2347
0.230173
0.223856
0.215579
0.20579
0.195473
0.184745
0.175309
0.168603
0.165315
0.160165
0.156705
0.153828
0.148323
0.14959
0.1466
0.147493
0.152456
0.151929
0.154062
0.157368
0.15938
0.154964
0.154468
0.149863
0.145427
0.140132
0.132685
0.127256
0.122008
0.117202
0.109385
0.102858
0.0974246
0.0936854
0.0909679
0.0848601
0.0818192
0.0798604
0.0784017
0.0782227
0.0736554
0.0146616
0.0273456
0.0792738
0.102733
0.0848081
0.0601705
0.0376123
0.025746
0.0197865
0.0171175
0.0166068
0.0172304
0.0194247
0.0528425
0.167052
0.0426996
0.0261842
0.027594
0.0478192
0.0591283
0.0552149
0.0681182
0.0965227
0.132247
0.167039
0.208415
0.198396
0.189512
0.180727
0.167862
0.149984
0.131498
0.116712
0.108538
0.111155
0.126331
0.109357
0.112922
0.10635
0.106142
0.104138
0.106578
0.111548
0.121373
0.135506
0.153303
0.170424
0.185987
0.200394
0.213532
0.225114
0.238132
0.246748
0.238737
0.236615
0.23698
0.237474
0.236014
0.232636
0.228096
0.222148
0.213957
0.204247
0.194117
0.183469
0.174108
0.167489
0.164488
0.159767
0.155764
0.153159
0.147572
0.147705
0.145959
0.147018
0.150778
0.151324
0.153657
0.156776
0.157557
0.154556
0.154467
0.149397
0.145215
0.1392
0.132438
0.127024
0.121831
0.116561
0.109179
0.102725
0.09728
0.0933534
0.0902196
0.0847176
0.0817195
0.0797658
0.0783078
0.0774905
0.073553
0.0147036
0.0392718
0.311262
0.125546
0.0683381
0.0437411
0.0278001
0.0204217
0.0171986
0.016214
0.0168355
0.0179167
0.0183698
0.0356128
0.0459547
0.0296158
0.0237893
0.0254176
0.0355713
0.0434931
0.0521484
0.0743892
0.108567
0.142827
0.170911
0.193888
0.193593
0.187504
0.17875
0.165922
0.150737
0.135565
0.123182
0.115355
0.113441
0.112202
0.108803
0.110291
0.115772
0.126711
0.119217
0.122617
0.12501
0.131708
0.144537
0.162254
0.17821
0.190913
0.202823
0.215148
0.224607
0.23529
0.239537
0.236954
0.235836
0.236109
0.236442
0.234197
0.230059
0.225487
0.220161
0.211935
0.202289
0.192359
0.181818
0.172549
0.166037
0.163183
0.159414
0.154645
0.151536
0.146596
0.146099
0.145143
0.146408
0.149357
0.150565
0.153132
0.156031
0.156255
0.154042
0.154489
0.148721
0.145009
0.138511
0.13212
0.126713
0.121601
0.115911
0.10892
0.10255
0.0970896
0.0930264
0.0896134
0.0845357
0.081587
0.0796398
0.0781838
0.0769088
0.0734234
0.014695
0.0377947
0.158401
0.0811627
0.0458776
0.031094
0.0221285
0.0188028
0.0165572
0.016026
0.0163019
0.0169201
0.017708
0.025308
0.0285272
0.0251245
0.0282372
0.0271729
0.0324709
0.0402771
0.0570872
0.086947
0.128878
0.158239
0.175142
0.190277
0.190819
0.186655
0.179811
0.168128
0.155474
0.143127
0.132886
0.125198
0.120705
0.117114
0.115303
0.117904
0.124494
0.131796
0.13191
0.141019
0.144076
0.142014
0.153037
0.171206
0.186719
0.195143
0.204384
0.218641
0.223667
0.232682
0.239689
0.235743
0.23447
0.234576
0.235006
0.232249
0.227025
0.222383
0.218063
0.209587
0.199989
0.190202
0.179866
0.170674
0.164273
0.161333
0.157514
0.153375
0.150119
0.145426
0.144604
0.144176
0.145685
0.148056
0.149681
0.152491
0.155167
0.155255
0.153439
0.153623
0.147829
0.143686
0.137948
0.131735
0.126325
0.121319
0.115302
0.108612
0.102332
0.0968563
0.092692
0.0891111
0.0843188
0.0814225
0.079483
0.0780309
0.0764344
0.07327
0.0140988
0.0275161
0.0666982
0.0464433
0.0297088
0.0238544
0.0222278
0.0213002
0.0175957
0.0167161
0.0168793
0.0176952
0.0189405
0.0216508
0.0230621
0.0229343
0.0252561
0.0274356
0.032533
0.0440692
0.0733367
0.102095
0.132954
0.158042
0.177318
0.19306
0.191076
0.187221
0.184555
0.173029
0.163534
0.153576
0.145809
0.139094
0.134748
0.130991
0.128591
0.130816
0.136415
0.14657
0.151134
0.143997
0.143196
0.148039
0.159279
0.177534
0.197338
0.197377
0.203727
0.212554
0.219731
0.228284
0.236684
0.233649
0.232421
0.232408
0.232873
0.230649
0.223551
0.218787
0.215915
0.206997
0.197372
0.187596
0.177785
0.1685
0.16224
0.159102
0.155821
0.152053
0.148826
0.144079
0.14312
0.143072
0.144867
0.14679
0.148693
0.151733
0.15422
0.154443
0.152759
0.152135
0.146764
0.142505
0.137464
0.131286
0.125859
0.120992
0.1147
0.108256
0.102073
0.0965831
0.0923403
0.0885323
0.0840672
0.0812269
0.0792959
0.0778499
0.0760261
0.0730951
0.0162295
0.0224836
0.0359128
0.027694
0.0217613
0.0197858
0.020784
0.0183661
0.0171571
0.017388
0.0183722
0.0195395
0.020955
0.0217629
0.0221657
0.0232379
0.0262261
0.0301301
0.0366419
0.0501786
0.0758963
0.120573
0.14372
0.163488
0.181916
0.192384
0.190345
0.18808
0.184302
0.176923
0.174769
0.165676
0.16129
0.156168
0.153012
0.151037
0.146541
0.146628
0.150835
0.152814
0.149379
0.146411
0.147957
0.15414
0.164009
0.177808
0.188877
0.195149
0.201914
0.209004
0.215908
0.223487
0.232478
0.230726
0.22967
0.229629
0.22984
0.225851
0.21939
0.214685
0.213376
0.204384
0.194561
0.184445
0.174754
0.166042
0.159988
0.156629
0.154187
0.150762
0.147691
0.14256
0.141598
0.141841
0.143995
0.145503
0.147619
0.150836
0.153245
0.153468
0.152006
0.150855
0.145589
0.141401
0.137031
0.130779
0.125319
0.120262
0.114083
0.107856
0.101773
0.096273
0.0919677
0.0879808
0.0837863
0.0810012
0.0790793
0.0776413
0.0756606
0.0728999
0.0142659
0.0178584
0.0235057
0.0209275
0.0179845
0.017206
0.017464
0.0170055
0.0172062
0.0181876
0.019378
0.0220989
0.0269968
0.0263103
0.0260652
0.0267889
0.0334321
0.0375358
0.0466307
0.0605031
0.0843944
0.113682
0.139025
0.162509
0.189098
0.19798
0.19146
0.189364
0.189236
0.180741
0.176927
0.175143
0.178327
0.17552
0.169913
0.167683
0.166766
0.162912
0.166664
0.164841
0.156163
0.152896
0.15505
0.160948
0.168615
0.178333
0.186744
0.194162
0.200729
0.20673
0.21258
0.218756
0.224388
0.227017
0.226517
0.226255
0.226688
0.221677
0.214931
0.210126
0.208867
0.20037
0.190067
0.180916
0.171655
0.163403
0.157561
0.153974
0.152608
0.148133
0.144793
0.140846
0.140015
0.140492
0.142414
0.144154
0.146467
0.149749
0.152341
0.151873
0.151207
0.149772
0.14434
0.140309
0.136235
0.130161
0.124704
0.119506
0.113448
0.107412
0.101433
0.0959291
0.0914853
0.0874551
0.0834785
0.0807461
0.0788338
0.0774055
0.0753241
0.0726849
0.0134914
0.0154156
0.0175975
0.0173892
0.0161072
0.016003
0.0164396
0.0168478
0.0182381
0.0208992
0.02178
0.0255487
0.0423926
0.0521218
0.0342866
0.032662
0.0368328
0.0475548
0.0644462
0.080378
0.104242
0.119647
0.140325
0.16183
0.181388
0.193246
0.190708
0.189139
0.187253
0.183624
0.181882
0.183634
0.195262
0.19896
0.188209
0.183525
0.180144
0.178442
0.175741
0.171959
0.164988
0.161566
0.1634
0.168489
0.173865
0.180432
0.187043
0.194397
0.20054
0.205258
0.209672
0.21432
0.218382
0.222171
0.222086
0.222264
0.224073
0.217973
0.210194
0.205187
0.202582
0.195102
0.185463
0.176688
0.168478
0.160668
0.154996
0.151167
0.150148
0.145569
0.142076
0.139008
0.138367
0.13904
0.14081
0.142741
0.145271
0.148462
0.150794
0.150333
0.149542
0.147817
0.143028
0.139191
0.134918
0.129477
0.124018
0.118722
0.11279
0.106927
0.101054
0.0955546
0.0909901
0.0869431
0.0831456
0.0804626
0.0785602
0.0771434
0.0750066
0.0724506
0.0133958
0.0148872
0.0164761
0.0160689
0.015743
0.015928
0.0166024
0.017685
0.0190525
0.0211998
0.0251307
0.0321899
0.0717456
0.0814305
0.0487124
0.0407931
0.0433729
0.0538413
0.0728094
0.0910165
0.108345
0.126316
0.14589
0.162778
0.177943
0.189004
0.191345
0.189719
0.189266
0.188435
0.187661
0.189647
0.195125
0.194814
0.192405
0.199521
0.19312
0.196637
0.186964
0.184515
0.175448
0.171008
0.172009
0.176365
0.179733
0.183373
0.188125
0.194607
0.201571
0.204216
0.206935
0.210187
0.213362
0.217333
0.218169
0.217766
0.218587
0.212133
0.205049
0.199967
0.196312
0.190365
0.180905
0.172341
0.16409
0.156736
0.152307
0.148249
0.146448
0.143146
0.139503
0.137087
0.136654
0.137497
0.139201
0.141267
0.143769
0.146856
0.149343
0.148886
0.147877
0.146004
0.141682
0.138035
0.133634
0.128729
0.123266
0.1179
0.112109
0.106413
0.100636
0.0951522
0.0904784
0.0864364
0.082789
0.0801515
0.0782594
0.0768568
0.0746173
0.0721967
0.0137512
0.015478
0.0162125
0.016739
0.0174069
0.0181778
0.0181675
0.020109
0.0218252
0.023101
0.0267943
0.0347235
0.0638782
0.118283
0.0614474
0.0463962
0.0459304
0.0571867
0.0880246
0.109677
0.116901
0.135155
0.156977
0.165821
0.176962
0.189933
0.195785
0.190993
0.19361
0.195021
0.193783
0.194153
0.196158
0.195897
0.195383
0.196926
0.196406
0.198232
0.194044
0.189085
0.183878
0.179762
0.179866
0.183801
0.186106
0.186235
0.189106
0.193227
0.197581
0.202633
0.204262
0.206477
0.209111
0.21208
0.213025
0.212825
0.211964
0.206183
0.199752
0.194473
0.190111
0.185221
0.17635
0.1679
0.159731
0.152739
0.149663
0.145365
0.142917
0.140017
0.136996
0.135107
0.134882
0.135875
0.137576
0.139735
0.142196
0.14513
0.147947
0.147118
0.146224
0.144329
0.140313
0.136839
0.132376
0.12792
0.122456
0.117036
0.111405
0.10558
0.100179
0.094735
0.089947
0.0859287
0.0824101
0.0798139
0.0779321
0.0765486
0.0742322
0.0719239
0.0140546
0.0149445
0.0158771
0.0176455
0.0195039
0.0200999
0.0208494
0.0233701
0.0251826
0.0288298
0.0341249
0.0438908
0.066859
0.100458
0.0642549
0.0495095
0.0497388
0.0614551
0.0872098
0.107996
0.123896
0.144288
0.166529
0.168745
0.176709
0.184855
0.188784
0.188989
0.200259
0.196406
0.199397
0.197253
0.198453
0.198672
0.197765
0.198178
0.19883
0.199303
0.196303
0.194216
0.193531
0.188805
0.186321
0.189662
0.193217
0.188181
0.189433
0.190888
0.194166
0.198864
0.199354
0.200999
0.203264
0.206613
0.207966
0.20785
0.205884
0.200739
0.194374
0.188774
0.184018
0.179531
0.17195
0.163283
0.155617
0.148715
0.146059
0.14177
0.139555
0.136992
0.134546
0.133085
0.133057
0.134183
0.13593
0.138149
0.140586
0.143355
0.146609
0.145349
0.144568
0.142794
0.138925
0.135609
0.131116
0.127049
0.121597
0.116128
0.110679
0.104714
0.0997024
0.0941081
0.0893911
0.0854155
0.0820101
0.0794504
0.0775793
0.076142
0.0738437
0.0716325
0.0141678
0.0160797
0.0172449
0.0221666
0.0299392
0.027404
0.0277254
0.0337362
0.0399954
0.063735
0.0506279
0.0629804
0.0720707
0.09894
0.0688007
0.0540688
0.0572229
0.0730704
0.0964728
0.116437
0.131406
0.155144
0.169084
0.169121
0.174795
0.180886
0.185187
0.186043
0.191209
0.192762
0.19619
0.196631
0.199602
0.203638
0.200303
0.200588
0.201829
0.202665
0.200903
0.195354
0.192586
0.190434
0.19028
0.193018
0.194746
0.187694
0.186289
0.186668
0.190293
0.194519
0.193748
0.19555
0.197553
0.201485
0.201676
0.201422
0.199498
0.19468
0.18896
0.183015
0.177998
0.173155
0.166876
0.158429
0.150775
0.144654
0.141687
0.138137
0.136345
0.13412
0.132149
0.131034
0.131185
0.132431
0.134261
0.136513
0.138942
0.141542
0.144575
0.143586
0.1429
0.141107
0.137515
0.134379
0.129834
0.126128
0.120714
0.115174
0.10992
0.103826
0.098822
0.0934507
0.0888134
0.0848932
0.0815899
0.0790621
0.0772021
0.0757254
0.0734495
0.0713231
0.0174921
0.0184814
0.0223141
0.0355123
0.105206
0.0533073
0.0455591
0.053695
0.0685051
0.0678579
0.0696548
0.0679974
0.0737048
0.0911911
0.0765038
0.0603666
0.0674162
0.084977
0.0996471
0.124284
0.138271
0.152303
0.163951
0.16607
0.173058
0.17916
0.185368
0.182956
0.185318
0.188733
0.192798
0.194326
0.197381
0.198208
0.201377
0.203085
0.204519
0.210956
0.201804
0.195362
0.193136
0.193013
0.1932
0.19462
0.190781
0.18487
0.182341
0.182015
0.185525
0.190702
0.188127
0.190211
0.191931
0.194797
0.19449
0.195128
0.192916
0.18815
0.183676
0.177256
0.172135
0.167002
0.160618
0.153422
0.146141
0.140608
0.137451
0.134586
0.133354
0.131379
0.129798
0.128962
0.129272
0.130626
0.132572
0.134831
0.137272
0.139701
0.142585
0.141815
0.141217
0.139447
0.136088
0.132921
0.128513
0.124903
0.119592
0.114172
0.109129
0.102922
0.0979472
0.0927828
0.0882146
0.0843592
0.0811505
0.0786496
0.0768013
0.0752989
0.0730482
0.0709959
0.0417903
0.0273737
0.0331572
0.0634842
0.106543
0.0701401
0.0671988
0.0853596
0.0815176
0.0783107
0.0791959
0.0841517
0.0826446
0.0856173
0.0749401
0.0703348
0.0761192
0.0872847
0.103055
0.121614
0.14226
0.15148
0.155629
0.163096
0.172806
0.180065
0.179584
0.177887
0.179548
0.184484
0.189808
0.19252
0.190267
0.190946
0.194582
0.205529
0.206292
0.201171
0.197018
0.195302
0.194253
0.195966
0.196191
0.192346
0.186916
0.180457
0.17747
0.17598
0.1785
0.182624
0.181096
0.184
0.185291
0.187069
0.186223
0.186689
0.185177
0.180856
0.176715
0.169928
0.165462
0.160069
0.153499
0.147502
0.140915
0.135803
0.132635
0.13045
0.129551
0.128228
0.127037
0.126471
0.126944
0.128412
0.130563
0.132773
0.135277
0.137489
0.139994
0.139729
0.139184
0.137511
0.13437
0.131131
0.126886
0.123391
0.118206
0.112921
0.108123
0.10187
0.0967508
0.0919698
0.0874742
0.0837042
0.0806033
0.0781287
0.0762955
0.0747764
0.0725584
0.0705841
0.0795383
0.0430049
0.0466601
0.0637423
0.0798215
0.0726479
0.0865764
0.102263
0.0949334
0.0930863
0.100495
0.0982175
0.099469
0.0910011
0.0869593
0.0808163
0.0873908
0.100731
0.114678
0.125927
0.13622
0.143557
0.149997
0.159528
0.171727
0.173502
0.173359
0.172456
0.173341
0.17609
0.179549
0.1804
0.181428
0.183603
0.186257
0.190122
0.190782
0.191447
0.194503
0.193882
0.194484
0.198924
0.196122
0.188393
0.180718
0.174444
0.170242
0.16819
0.169405
0.17149
0.172727
0.177166
0.177844
0.179429
0.177182
0.177452
0.177083
0.171894
0.166742
0.161659
0.157141
0.151481
0.145653
0.141018
0.135327
0.130371
0.127412
0.125864
0.12533
0.124786
0.123924
0.123589
0.124209
0.125783
0.127913
0.130317
0.132765
0.134773
0.136977
0.137
0.13681
0.135305
0.132387
0.129057
0.124933
0.121368
0.116548
0.111396
0.106668
0.100431
0.0953394
0.090822
0.0865812
0.0829175
0.0799365
0.0774843
0.0756706
0.0741514
0.0719736
0.070076
0.0947735
0.0613692
0.0598634
0.0643359
0.0721271
0.0782157
0.0937257
0.101571
0.100205
0.104391
0.120409
0.11045
0.104434
0.102342
0.0952364
0.0991115
0.101379
0.112098
0.13064
0.136431
0.139431
0.142225
0.147445
0.156666
0.163633
0.164079
0.163262
0.164057
0.16373
0.168738
0.172292
0.174244
0.17427
0.180192
0.18008
0.179512
0.18087
0.183151
0.187434
0.190203
0.189252
0.190197
0.188313
0.183231
0.175364
0.168004
0.162752
0.160032
0.160342
0.161823
0.164497
0.168493
0.168829
0.169864
0.168104
0.168471
0.168184
0.16256
0.157413
0.152836
0.148145
0.14312
0.138281
0.134763
0.130438
0.125087
0.122456
0.12144
0.121412
0.121587
0.120867
0.120715
0.121435
0.123095
0.125214
0.127806
0.130126
0.132036
0.134002
0.13433
0.134251
0.133071
0.130462
0.126873
0.122905
0.119288
0.114824
0.109794
0.105068
0.099101
0.0939299
0.0896717
0.0856552
0.0820967
0.0792311
0.0767986
0.0750073
0.0735029
0.0713661
0.0695365
0.0985438
0.0792891
0.072095
0.0694742
0.074851
0.0846182
0.0945425
0.0991181
0.101779
0.10894
0.120986
0.123209
0.115654
0.112246
0.109152
0.1099
0.116352
0.123523
0.1291
0.133698
0.138551
0.143581
0.146936
0.153938
0.157866
0.15699
0.156058
0.154836
0.152966
0.156589
0.158588
0.15854
0.162461
0.168798
0.166552
0.168222
0.17314
0.17489
0.178607
0.181358
0.182535
0.184159
0.179976
0.17472
0.169837
0.161314
0.155385
0.151743
0.151639
0.152997
0.156236
0.159623
0.16039
0.160094
0.159187
0.158813
0.15772
0.152981
0.148439
0.14426
0.139749
0.135636
0.131279
0.12871
0.124062
0.119891
0.117721
0.117161
0.117377
0.117793
0.117895
0.117868
0.118634
0.120366
0.122506
0.125256
0.127486
0.129261
0.131056
0.131792
0.131687
0.130778
0.128116
0.124697
0.120809
0.117181
0.113038
0.108116
0.103335
0.0973988
0.0925088
0.0885157
0.0845978
0.0812405
0.0784796
0.0760728
0.0743078
0.0728277
0.0707336
0.0689667
0.0995038
0.0915057
0.0830128
0.078128
0.081949
0.0892683
0.0942429
0.0976548
0.10203
0.109729
0.120673
0.127683
0.125824
0.126185
0.12145
0.124219
0.128953
0.131181
0.132636
0.133209
0.135733
0.13823
0.139476
0.14495
0.148775
0.150323
0.152236
0.147763
0.143501
0.146344
0.144353
0.144803
0.148517
0.151461
0.154923
0.158363
0.164026
0.167224
0.170562
0.173804
0.175542
0.174562
0.170846
0.166221
0.158914
0.151875
0.14647
0.143277
0.143388
0.144694
0.148469
0.150481
0.151124
0.150913
0.150906
0.149405
0.147856
0.144407
0.140137
0.136162
0.131855
0.128139
0.124538
0.122147
0.118236
0.114881
0.113184
0.11302
0.11346
0.114131
0.114628
0.115056
0.115812
0.117608
0.119784
0.122654
0.124956
0.126452
0.128127
0.128966
0.129096
0.128419
0.125821
0.122288
0.118649
0.115041
0.111197
0.106367
0.101535
0.095737
0.0910786
0.0873529
0.0835186
0.0802823
0.0776845
0.0753087
0.073574
0.0721213
0.0700743
0.0683677
0.0997419
0.0968214
0.0909655
0.0865195
0.0882522
0.0914808
0.0933184
0.0959374
0.100595
0.10811
0.119054
0.128569
0.135609
0.136599
0.134731
0.142486
0.144295
0.140811
0.138286
0.134449
0.132867
0.131274
0.133062
0.137877
0.142229
0.146064
0.142878
0.138096
0.134134
0.133582
0.133088
0.134792
0.137372
0.140303
0.14479
0.150664
0.156383
0.159911
0.163593
0.167012
0.169403
0.166458
0.161754
0.155602
0.148252
0.142461
0.138214
0.134952
0.135082
0.136709
0.139693
0.140986
0.141703
0.142488
0.141747
0.140325
0.138551
0.135673
0.132344
0.128521
0.124464
0.121016
0.118077
0.11585
0.113044
0.110083
0.108831
0.109011
0.109693
0.110637
0.111416
0.112012
0.112972
0.114833
0.117047
0.119906
0.121968
0.12361
0.125208
0.12601
0.126468
0.126005
0.123212
0.119846
0.116437
0.112862
0.109097
0.104593
0.0997386
0.0940971
0.0896366
0.0860065
0.0823681
0.079295
0.0767269
0.0745086
0.0728082
0.0713848
0.0693878
0.0677407
0.0997438
0.0982038
0.0948594
0.091663
0.0912012
0.090659
0.09003
0.0917526
0.0961823
0.103261
0.113838
0.127911
0.136536
0.14442
0.142004
0.151436
0.149851
0.141153
0.139776
0.133153
0.133108
0.126847
0.12771
0.132247
0.137133
0.137799
0.135691
0.132282
0.1274
0.125347
0.125675
0.129652
0.131922
0.133386
0.138171
0.145612
0.152303
0.154489
0.157636
0.160821
0.16289
0.15822
0.152056
0.145188
0.138042
0.133095
0.128877
0.12676
0.127134
0.128989
0.13175
0.131992
0.132718
0.13382
0.133217
0.131668
0.129861
0.127321
0.125261
0.121298
0.117528
0.114395
0.111932
0.109971
0.107641
0.10547
0.104648
0.10513
0.106055
0.107289
0.10838
0.109001
0.110126
0.112052
0.114297
0.117067
0.119022
0.120752
0.122297
0.123089
0.123856
0.123602
0.120524
0.117369
0.114187
0.11064
0.106966
0.102549
0.0977551
0.0924495
0.0881821
0.0846602
0.0812009
0.0782801
0.075776
0.0736769
0.0720125
0.0705562
0.068675
0.0670721
0.0996118
0.0978943
0.095202
0.0924821
0.0899224
0.0862059
0.0836211
0.0847157
0.0890911
0.0957841
0.105177
0.117793
0.128317
0.135439
0.139058
0.144102
0.142133
0.135136
0.132089
0.127097
0.122671
0.120012
0.123435
0.125335
0.129182
0.12981
0.131048
0.126963
0.123056
0.120228
0.120158
0.123027
0.125036
0.127906
0.13327
0.140166
0.145828
0.149419
0.152215
0.153269
0.152143
0.147146
0.142531
0.135356
0.12832
0.12429
0.12044
0.118898
0.119526
0.121495
0.123878
0.123466
0.124204
0.125271
0.124727
0.123411
0.121698
0.119469
0.117392
0.114512
0.111002
0.10822
0.106122
0.104494
0.102539
0.101064
0.100631
0.101376
0.102532
0.103864
0.105126
0.106022
0.107287
0.109271
0.111539
0.114203
0.116127
0.117888
0.119391
0.120185
0.120958
0.120942
0.11789
0.114859
0.11191
0.108376
0.104807
0.10043
0.0958026
0.0907893
0.0867153
0.0833107
0.0800189
0.0772395
0.0748191
0.0728166
0.071189
0.0697227
0.0679384
0.0663786
0.0993216
0.0965781
0.0928799
0.0892879
0.0846042
0.0784853
0.0748001
0.0759468
0.0808471
0.0875763
0.095826
0.105917
0.11645
0.124095
0.130175
0.132939
0.134349
0.127155
0.123373
0.118758
0.113839
0.1128
0.1151
0.118076
0.120576
0.121981
0.122659
0.121862
0.12184
0.116971
0.115453
0.118264
0.121955
0.123622
0.129524
0.135704
0.141477
0.144887
0.147162
0.145258
0.141449
0.136465
0.131754
0.126344
0.119076
0.114956
0.112823
0.111363
0.11241
0.114237
0.115437
0.115283
0.116094
0.117073
0.116877
0.115581
0.114008
0.11207
0.109984
0.107605
0.104852
0.102463
0.100651
0.0995539
0.0977875
0.0968815
0.0967742
0.0977478
0.0991129
0.100574
0.101938
0.103093
0.104463
0.106499
0.108779
0.111342
0.113264
0.115027
0.116491
0.117289
0.118004
0.117953
0.115346
0.112318
0.109551
0.106071
0.102551
0.0982951
0.0938805
0.0891171
0.0852372
0.0819558
0.0788238
0.0761752
0.073849
0.0719299
0.0703399
0.0688782
0.0671803
0.065661
0.0987497
0.0941014
0.0881679
0.0826695
0.0759707
0.0684521
0.0646844
0.066727
0.0727094
0.0800405
0.087681
0.0958979
0.10487
0.111943
0.11776
0.119911
0.117416
0.113457
0.115725
0.109066
0.10614
0.106122
0.107976
0.111236
0.112764
0.114347
0.115815
0.117924
0.117498
0.113094
0.111128
0.112197
0.114697
0.118796
0.126161
0.131871
0.136808
0.139204
0.139625
0.13595
0.130711
0.126427
0.120925
0.115743
0.110487
0.106201
0.104486
0.104072
0.10508
0.107401
0.107251
0.10751
0.108393
0.109319
0.109162
0.108163
0.106757
0.105083
0.103149
0.101105
0.0990922
0.0971135
0.0955067
0.0946455
0.0933098
0.0928087
0.0930681
0.0942419
0.0957863
0.0974169
0.098878
0.10013
0.101659
0.103739
0.106022
0.108497
0.110426
0.112171
0.113596
0.114395
0.115044
0.114915
0.112502
0.109739
0.107187
0.103729
0.100276
0.0961563
0.0919131
0.0874346
0.0837502
0.0805945
0.077617
0.0750895
0.0728628
0.0710191
0.069467
0.068019
0.0664027
0.0649201
0.097615
0.0897923
0.0806387
0.0729137
0.0648611
0.0571807
0.0543053
0.0577783
0.0652206
0.0735602
0.0811715
0.0881958
0.0953486
0.101028
0.105218
0.105623
0.103925
0.102306
0.102886
0.10047
0.099662
0.100366
0.101902
0.103816
0.105764
0.108115
0.11002
0.113866
0.114817
0.109248
0.107919
0.107305
0.10987
0.114356
0.120822
0.126612
0.131262
0.133602
0.130296
0.125034
0.119859
0.115022
0.110289
0.105514
0.101209
0.0979235
0.0966625
0.0974682
0.0979892
0.0998187
0.0996294
0.100188
0.101114
0.102003
0.101848
0.101157
0.0999304
0.0984875
0.0970822
0.0951265
0.0937059
0.092377
0.0906852
0.0899269
0.0890748
0.0889478
0.0895107
0.0908559
0.0925352
0.0943566
0.0959418
0.0972364
0.098882
0.100996
0.103272
0.105671
0.107609
0.109323
0.110706
0.1115
0.112078
0.111815
0.109675
0.107132
0.104614
0.101356
0.0979838
0.0940286
0.0898794
0.0857432
0.0822572
0.0792265
0.0764004
0.0739848
0.0718599
0.070086
0.0685722
0.067144
0.0656077
0.0641566
0.0953116
0.0825282
0.0696175
0.0602438
0.0521899
0.0457199
0.044399
0.0493946
0.05829
0.0678587
0.0759052
0.0823608
0.0880776
0.0923463
0.0950961
0.0951493
0.0944395
0.0941046
0.0944781
0.0940604
0.0944431
0.0955178
0.096614
0.0977895
0.0990782
0.102062
0.105603
0.105966
0.107766
0.104156
0.101596
0.10252
0.105683
0.110061
0.115398
0.119938
0.123814
0.125958
0.12011
0.114592
0.109282
0.104444
0.100227
0.0960094
0.0930493
0.0902304
0.0893943
0.090534
0.0912369
0.092653
0.0926205
0.0933299
0.0942645
0.0951134
0.0950427
0.0945801
0.0935175
0.0922679
0.0911488
0.0895655
0.0886484
0.0876599
0.086135
0.0855245
0.0850744
0.0852806
0.086097
0.0875862
0.0893537
0.0912332
0.0931366
0.0944077
0.0961375
0.0982735
0.100535
0.102866
0.10481
0.106483
0.107823
0.108603
0.109107
0.108729
0.106906
0.104502
0.102051
0.0989616
0.0956843
0.0917943
0.0878721
0.084047
0.0807611
0.0778521
0.0751757
0.0728639
0.0708409
0.0691325
0.0676572
0.066253
0.0647969
0.0633713
0.0906392
0.0709315
0.054878
0.0455313
0.0392267
0.0350247
0.0353947
0.0415289
0.0516078
0.0623998
0.071237
0.0776275
0.082465
0.085711
0.0875738
0.0877559
0.0877334
0.088081
0.0887223
0.089148
0.089953
0.0912063
0.0915991
0.0920569
0.0924263
0.0931608
0.0952552
0.0973979
0.0964363
0.095424
0.0957243
0.0981001
0.101666
0.105662
0.109914
0.113195
0.115381
0.113885
0.109493
0.104498
0.0992331
0.0948392
0.0908916
0.0872703
0.0848457
0.0830052
0.0826433
0.0838891
0.0847852
0.0860992
0.0861309
0.0869143
0.0878353
0.0886433
0.0886928
0.0884288
0.0875071
0.0864331
0.0854865
0.084372
0.0839056
0.0830005
0.0818293
0.0814068
0.0812969
0.0817917
0.0828208
0.0844298
0.0862575
0.088231
0.0903368
0.0916336
0.0934274
0.095574
0.0978126
0.100083
0.102027
0.103657
0.104947
0.105706
0.106136
0.10567
0.103973
0.101855
0.0994994
0.0965552
0.0933884
0.0895952
0.0858887
0.0823493
0.079266
0.0764721
0.0739447
0.0717294
0.069807
0.0681603
0.0667237
0.0653464
0.0639196
0.0625651
0.0813777
0.0539699
0.0375791
0.0306456
0.0273871
0.0258476
0.0275638
0.0341111
0.0448014
0.0566188
0.0665196
0.0732279
0.0776812
0.0803462
0.0817749
0.082168
0.0825706
0.0832716
0.0841066
0.0847677
0.0854785
0.0867756
0.0863395
0.0857078
0.0863777
0.0843371
0.0853225
0.0872432
0.089184
0.0886508
0.0905633
0.0940051
0.0975575
0.100921
0.104056
0.105943
0.106729
0.103458
0.0992496
0.094799
0.0903852
0.086215
0.0827855
0.0793468
0.0772981
0.0763097
0.0763673
0.0776514
0.0786579
0.0797916
0.0800839
0.0809128
0.08181
0.0825806
0.0827535
0.0830117
0.0818848
0.0809643
0.0802582
0.0795279
0.0791469
0.0785317
0.0777662
0.0775464
0.077728
0.0784684
0.079676
0.0813835
0.0832601
0.0853191
0.0873927
0.0889109
0.0907527
0.0928991
0.0951088
0.097321
0.0992536
0.10085
0.102079
0.102812
0.10317
0.102646
0.101082
0.0991615
0.0969604
0.094144
0.0910387
0.0874253
0.083927
0.0806515
0.0777761
0.0750869
0.0727096
0.0705836
0.0687593
0.0671714
0.0657732
0.064425
0.0630313
0.0617399
0.062991
0.0325934
0.0209384
0.0181215
0.0179831
0.0186707
0.0211194
0.0272395
0.0377183
0.0501778
0.0612297
0.0684768
0.0728899
0.0753145
0.0766017
0.0771992
0.0778784
0.078772
0.0796407
0.0801595
0.0803508
0.080301
0.0788668
0.0776875
0.0766601
0.0755282
0.076557
0.0787988
0.0808056
0.0825945
0.0857025
0.090275
0.0930802
0.0956372
0.0975392
0.0979793
0.098376
0.0937251
0.0894276
0.0854527
0.0813954
0.0783087
0.075021
0.072068
0.0705321
0.0701481
0.0705401
0.0718208
0.0728906
0.074016
0.0744512
0.0752979
0.0761681
0.0769077
0.0771806
0.0775584
0.0765931
0.0758424
0.0753917
0.0750279
0.0746859
0.0744356
0.0739487
0.0739194
0.0743523
0.0752995
0.0766565
0.0784441
0.0803649
0.0824884
0.0844862
0.0862363
0.0881142
0.0902499
0.0924256
0.0945803
0.0964842
0.0980721
0.099221
0.0999249
0.100215
0.0996591
0.0982233
0.0964677
0.0944393
0.0917343
0.0887136
0.0852808
0.0819854
0.0789568
0.0762967
0.0736969
0.0714724
0.0694284
0.0676993
0.0661675
0.0648074
0.0634899
0.0621323
0.0608975
0.00389435
0.00508321
0.00618804
0.008107
0.0104033
0.0127096
0.0155795
0.020517
0.0290381
0.0401247
0.0512947
0.0592326
0.0637809
0.066172
0.0675733
0.0685863
0.0696959
0.0708316
0.071543
0.0714063
0.0702694
0.0681983
0.0656288
0.0636585
0.0627129
0.06294
0.0647215
0.0675175
0.070571
0.0740472
0.0779153
0.0816496
0.0846547
0.0869417
0.0858594
0.0841212
0.0818845
0.0785753
0.0744672
0.0711982
0.0682651
0.0663943
0.0632917
0.0615603
0.06085
0.0611107
0.0618672
0.063093
0.0642099
0.0654741
0.0659984
0.0668428
0.0676755
0.0683754
0.0688062
0.0690023
0.0685629
0.0681336
0.0680581
0.0678481
0.0679478
0.0683801
0.0681885
0.0684212
0.0692054
0.0704312
0.0719887
0.0738786
0.0758633
0.0780513
0.080005
0.0820156
0.0839244
0.086028
0.0881411
0.090202
0.0920253
0.093501
0.0946358
0.0952949
0.0954857
0.0949096
0.09367
0.0921388
0.0903001
0.0878667
0.0850185
0.0818666
0.0788898
0.0762376
0.0737996
0.0714508
0.0694802
0.0675551
0.0659747
0.0645305
0.06323
0.0619644
0.0606684
0.0595161
0.00046632
0.000972053
0.00177291
0.00306712
0.00469473
0.0063789
0.00821421
0.0110315
0.0160556
0.0233353
0.0314392
0.0389029
0.044161
0.0474286
0.0498167
0.0519338
0.053926
0.0552987
0.0552654
0.0536023
0.0509206
0.0482612
0.0465893
0.0463813
0.047622
0.049955
0.053206
0.0569186
0.060688
0.0643711
0.0676296
0.0699894
0.071068
0.0709194
0.0685394
0.0661779
0.0635375
0.0609977
0.0578033
0.0555653
0.0543611
0.0526592
0.0510161
0.0503678
0.0504265
0.0511074
0.0520336
0.0531627
0.054227
0.0553082
0.056043
0.0568896
0.0576884
0.0583765
0.0589383
0.0591776
0.0591453
0.0590861
0.0593434
0.0595204