/*--------------------------------*- C++ -*----------------------------------*\
  =========                 |
  \\      /  F ield         | OpenFOAM: The Open Source CFD Toolbox
   \\    /   O peration     | Website:  https://openfoam.org
    \\  /    A nd           | Version:  6
     \\/     M anipulation  |
\*---------------------------------------------------------------------------*/
FoamFile
{
    version     2.0;
    format      ascii;
    class       scalarField;
    location    "0.005/lagrangian/sprayCloud";
    object      age;
}
// * * * * * * * * * * * * * * * * * * * * * * * * * * * * * * * * * * * * * //


531
(
0.00484957
0.00477667
0.00335746
0.00336282
0.00309579
0.00337928
0.00307561
0.00328152
0.00318937
0.00401086
0.00275016
0.00375697
0.00348545
0.00280946
0.00268457
0.00299977
0.00493119
0.00473009
0.00464892
0.00457444
0.00478038
0.00469309
0.00429664
0.00488367
0.00449901
0.00425595
0.00413751
0.00458089
0.00389777
0.00493431
0.00470922
0.00498491
0.0039805
0.00469878
0.00474195
0.00436658
0.00412543
0.00464381
0.0040572
0.00485942
0.00408599
0.00356859
0.00490781
0.00437243
0.00426403
0.00389052
0.00373788
0.00466645
0.00481245
0.00457992
0.00360417
0.00463009
0.00356439
0.00431189
0.00381188
0.00413214
0.00403085
0.00391152
0.00428079
0.00406609
0.00360351
0.00364539
0.00480726
0.0043612
0.00403436
0.00330853
0.00420781
0.00494267
0.00495961
0.00481723
0.00459981
0.00471916
0.00484572
0.0049261
0.00491699
0.00485562
0.0049129
0.00490315
0.00468295
0.00462242
0.00495651
0.00467718
0.0047664
0.00465633
0.00458978
0.00479026
0.005006
0.00460363
0.00446059
0.00476706
0.00455698
0.00446706
0.00417502
0.00433599
0.00407714
0.00408326
0.00414298
0.00407415
0.00405896
0.00398849
0.00392912
0.00389253
0.00393566
0.00385636
0.00379684
0.00381908
0.00378913
0.00369702
0.00367438
0.0036078
0.00366768
0.00357107
0.00354884
0.00355821
0.00353802
0.00350315
0.00341117
0.00340114
0.00337154
0.0033486
0.00333788
0.00333017
0.00332015
0.0033348
0.00329659
0.00329073
0.0032622
0.00332631
0.00325201
0.00319737
0.00318423
0.00317549
0.0031456
0.00316267
0.00313437
0.00311231
0.00305599
0.00304807
0.00302051
0.00298867
0.00303685
0.00297356
0.00296389
0.00294703
0.00295984
0.00287413
0.00297898
0.00291484
0.00286648
0.00285425
0.00284967
0.00286145
0.00281456
0.00278651
0.0027929
0.0028443
0.00274787
0.00274151
0.00270624
0.00275411
0.00266026
0.0027707
0.00267027
0.00264431
0.00269994
0.00261516
0.00270183
0.00267383
0.00258664
0.00262579
0.0025617
0.00256101
0.00253926
0.00257636
0.0025409
0.00250675
0.00250019
0.00260199
0.00248241
0.00246422
0.00246896
0.00244042
0.0024751
0.00249649
0.00248718
0.00244106
0.00251692
0.00243511
0.00240781
0.00236072
0.00253022
0.00236472
0.0023981
0.00238535
0.00231119
0.00244476
0.00236133
0.00237959
0.00232903
0.00229091
0.00243627
0.00226616
0.00233898
0.00233414
0.00223789
0.00222211
0.00218294
0.0021937
0.00217778
0.0021548
0.00214246
0.00213774
0.00212653
0.00214948
0.00211587
0.00206758
0.00207724
0.00202446
0.00199714
0.00205212
0.00200068
0.00197013
0.00199454
0.00197775
0.00195089
0.0019517
0.00193655
0.00192203
0.00191094
0.00195534
0.00190697
0.00191555
0.00189108
0.00188739
0.00184709
0.00187307
0.00186234
0.00208382
0.00187511
0.00188142
0.00183769
0.00186791
0.00179357
0.00192441
0.00177405
0.00181603
0.00178685
0.00178425
0.00201657
0.00192902
0.00175459
0.00176409
0.00174126
0.00173732
0.00177139
0.00171572
0.00172955
0.00168449
0.00170649
0.00170292
0.00168751
0.00166
0.00167997
0.00167595
0.00163982
0.00159739
0.00158776
0.00162237
0.00157149
0.00156266
0.00155662
0.00159286
0.00151927
0.00162851
0.0015401
0.00149858
0.001598
0.00154839
0.00167106
0.00161783
0.00152274
0.00151138
0.00148007
0.00148749
0.00149305
0.00146917
0.00146122
0.00153191
0.00153722
0.00147542
0.00141444
0.00139971
0.00140415
0.00139707
0.00138009
0.00139161
0.00132048
0.00131961
0.00136535
0.00133781
0.00134946
0.00142955
0.00129377
0.00160986
0.00133349
0.00132985
0.00127811
0.00126201
0.00127267
0.0013243
0.00125116
0.00128815
0.00125665
0.00124441
0.0012972
0.00122403
0.00120021
0.00118396
0.00137171
0.00120597
0.00146602
0.00113617
0.00117085
0.00112238
0.00141866
0.00114629
0.00123583
0.00110473
0.00108746
0.00142647
0.00129328
0.00110954
0.00106747
0.00113228
0.00114882
0.00105018
0.00115185
0.00107407
0.00103538
0.00101046
0.00130916
0.00116708
0.00116275
0.00111642
0.00110246
0.00104327
0.00103081
0.00102206
0.00100651
0.00100226
0.000996442
0.00098517
0.000978931
0.000975833
0.000970543
0.000967204
0.000962225
0.00095858
0.000949154
0.000940287
0.000934618
0.00092608
0.000916097
0.000910427
0.000906
0.000903742
0.000900402
0.000891457
0.000882659
0.000878852
0.000872414
0.000866691
0.00085425
0.000850981
0.00084545
0.000841868
0.0008351
0.000827911
0.000824343
0.000818653
0.000815279
0.000810213
0.000803398
0.000791845
0.000786894
0.000781908
0.000777014
0.00076998
0.000760201
0.0007564
0.000755747
0.000750022
0.000745004
0.000739393
0.000732756
0.000725572
0.000720184
0.000717389
0.000710799
0.000704747
0.000694268
0.000690353
0.000684193
0.000679101
0.000666826
0.000662693
0.00066081
0.000651354
0.000642301
0.000633454
0.000625908
0.000622859
0.00061607
0.000609789
0.000605994
0.000593431
0.000589842
0.000583746
0.000580271
0.000572253
0.000565276
0.000561701
0.000556664
0.000550041
0.000546603
0.000541459
0.000537398
0.00053002
0.000527076
0.000522665
0.000519001
0.000513141
0.000507313
0.000501866
0.000490818
0.000486943
0.000479841
0.000471728
0.000463651
0.00045999
0.000453108
0.000450389
0.00044638
0.000442892
0.000442283
0.000437486
0.000432107
0.000425434
0.000421037
0.000416115
0.000410462
0.000402649
0.000396955
0.000391184
0.000385751
0.000384082
0.000375569
0.000363664
0.00035967
0.000354618
0.000344379
0.000340465
0.000339603
0.000328195
0.00032349
0.000318221
0.000312499
0.000305059
0.000296064
0.000291506
0.000286354
0.00027928
0.000273918
0.000269026
0.000267563
0.000260096
0.00025448
0.000248983
0.000243796
0.000241869
0.00023683
0.000228009
0.0002249
0.000219718
0.000216285
0.000215698
0.000211133
0.000206854
0.000206163
0.000201331
0.000200437
0.000195068
0.000186652
0.000182763
0.000181968
0.000176688
0.000171357
0.000164503
0.000158334
0.000152679
0.000143847
0.000139698
0.000138555
0.000132531
0.000127561
0.000121487
0.000115412
0.000109001
0.000104698
0.000103264
9.79094e-05
9.33199e-05
9.13821e-05
7.99593e-05
7.62112e-05
7.02768e-05
6.67629e-05
6.59821e-05
5.5831e-05
5.23415e-05
4.59027e-05
4.07435e-05
3.83929e-05
3.21769e-05
3.04531e-05
2.78588e-05
2.57694e-05
2.2287e-05
1.67153e-05
1.11435e-05
2.78588e-06
)


// ************************************************************************* //
