/*--------------------------------*- C++ -*----------------------------------*\
  =========                 |
  \\      /  F ield         | OpenFOAM: The Open Source CFD Toolbox
   \\    /   O peration     | Website:  https://openfoam.org
    \\  /    A nd           | Version:  6
     \\/     M anipulation  |
\*---------------------------------------------------------------------------*/
FoamFile
{
    version     2.0;
    format      ascii;
    class       scalarField;
    location    "0.005/lagrangian/sprayCloud";
    object      Cp;
}
// * * * * * * * * * * * * * * * * * * * * * * * * * * * * * * * * * * * * * //


531
(
3572.09
3579.06
3954.77
3823.13
3977.24
3781.29
3975.98
3876.96
3868.29
3712.29
4007.64
3749.35
3762.18
3915.1
4065.96
3853.59
3755.95
3843.58
4311.1
3583.6
3750.7
3662.65
3766.4
4764.53
3886.93
3939.24
3678.35
3967.16
4208.32
3905.99
3770.65
3916.17
3728.18
3797.15
3984.58
3819.53
4022.92
3872.14
3963.47
3926
3782.02
3822.21
4763.36
3639.75
3751.28
4131.27
3690.28
4113.21
4090.09
3696.4
4015.75
3615.16
3691.02
3635.57
4629.66
3752.19
3690.51
3717.28
4002.93
4763.98
3696.87
3748.85
4763.66
3661.25
3956.01
4414.75
3634.85
4763.98
3899.88
4764.57
4276.49
4260.68
3544.59
3578.72
3575.79
3568.66
3596.96
4391.21
3655.47
3563.12
3605.56
3652.65
3619.47
4772.87
3924.59
3679.78
4708.48
3623.63
3667.39
4765.01
3820.92
4763.99
3688.33
3677.82
3659.92
3665.35
3647.75
3768.89
3660.93
3732.51
3682.96
3679.29
3673.28
3687.66
3738.56
3699.84
3960.38
3675.76
3713.71
4246.05
3728.98
3677.07
4489.7
3712.07
3714.7
3759.73
3956.86
3757.69
3764.71
3896.78
3694.6
4248.05
4632.45
3697.17
3730.14
3829.72
3849.59
3723.96
3765.88
3760.72
3747.93
4511.89
3742.91
4764.83
3738.58
3761.52
3897.06
4498.08
4389.22
4774.16
3799.91
4428.65
4119.15
4345.88
3883.84
3800.25
4763.99
3924.74
3835.99
4722.25
3944.82
3854.21
4108.88
3928.38
3884.72
4586.77
4008.74
4350.49
3964.27
4271.37
4048.99
4764.21
4120.83
4767.17
4426.1
4046.72
4632.45
4764.92
4783.03
4737.14
4003.53
4155.35
4773.86
4620.51
4722.25
4080.25
4220.84
4763.6
4144.48
4746.42
4767.46
4767
4723.27
4612.84
4345.78
4737.14
4763.96
4772.87
4453.17
4773.26
4763.84
4766.62
4767.34
4772.76
4613.58
4763.63
4722.25
4791.06
4773.62
4687.12
4767.86
4766.84
4770.14
4765.7
4663.74
4772.47
4770.52
4767
4769.27
4754.96
4766.62
4773.01
4760.64
4770.76
4765.92
4768.97
4777.13
4780.29
4778.75
4770.71
4769.27
4768.76
4779.76
4770.4
4770.15
4769.27
4769.1
4764.87
4772.9
4766.15
4767.2
4766.34
4766.08
4768.13
4768.06
4770.71
4769.57
4763.52
4770.73
4766.26
4772.09
4766.15
4767.88
4763.74
4767.62
4766.34
4767.2
4770.73
4763.03
4764.1
4768.06
4773.51
4765.76
4766.94
4769.7
4765.69
4772.21
4765.99
4760.89
4762.87
4766.31
4760.45
4774.04
4762.95
4763.21
4762.67
4760.64
4763.02
4763.1
4762.96
4760.33
4771.99
4762.87
4763.38
4767.87
4762.88
4766.7
4766.7
4765.42
4763.07
4765.64
4771.99
4769.04
4769.04
4771.16
4766.71
4769.04
4763.07
4753.61
4745.87
4763.76
4763.32
4763.17
4763.76
4763.76
4763.34
4762.3
4763.92
4764.09
4766
4764.09
4764.74
4771.46
4761.83
4764.57
4764.24
4766.09
4767.49
4765.39
4763.66
4766.09
4763.31
4761.45
4761.62
4763.56
4764.58
4770.36
4488.43
4762.73
4761.15
4762.91
4760.55
4761.47
4759.81
4763.17
4762.66
4763.21
4750.32
4750.61
4763.06
4763.21
4763.36
4762.61
4761.89
4762.81
4768.39
4763.1
4762.25
4762.65
4250.27
4765.71
4764.36
4764.8
4763.97
4773.18
4766.58
4769.11
4763.9
4763.59
4765.62
4763.67
4763.63
4763.27
4261.45
4764.84
4763.92
3843.51
4764.51
4762.63
4761.9
3995.23
4762.63
4764.31
4692.13
4764.87
3838.45
4763.48
4764.84
4765.08
4046.61
3843.85
4761.52
4763.87
4764.25
4125.03
3716.9
3718.27
4764.84
4765.04
4764.84
3803.04
4772.02
3783.9
3714.86
4767.34
4764.96
4767.34
4765.77
4771.43
4766.8
4027.54
4754.2
4768.64
3721.48
3855.5
4750.83
4764.97
3722.06
4769.16
4452.3
4082.47
3869.6
3626.04
3761.67
3939.43
4425.5
3664.88
3825.63
3670.45
4764.09
3804.58
3751.1
4760.03
4756.04
3688.53
3682.63
3876.19
3665.12
3860.83
3694.45
4763.62
3737.38
3726.84
4763.85
4764.33
3624.13
4121.32
3888.15
3606.58
3740.91
4764.36
3714.68
4764.36
4155.43
4765.2
4762.22
3678.93
4764.32
3667.93
3659.42
3753.17
4764.32
4507.53
4767.28
3720.28
3805.74
3627.31
3735.26
4765.72
4765.14
3720.74
3635.71
3681.64
3988.14
3753.67
4065.81
3711.23
4771.58
4762.11
3723.49
3629.4
3682.92
4763.83
3615.43
3711.65
3674.15
3697.87
3696.3
3998.64
4763.96
3702.14
3623.03
4763.96
3684.13
4765.98
3691.75
3718.82
3915.55
3641.85
4763.12
4763.58
4763.22
3811.9
3701.87
4763.12
3643.27
4763.22
3662.62
3804.12
3587.27
4621.09
3676.25
3716.6
3581.75
3762.6
3713.67
4766.24
3695.77
3745.79
3574.87
3733.49
3729.3
3672.51
3729.8
4766.03
3655.92
3828.35
4765.95
3696.47
3676.3
3717.43
3722.86
4765.95
3804.3
4765.5
3730.28
3683.23
3867.38
3721.06
3725.3
3746.57
3744.67
3741.73
3711.97
3710.13
3678.63
3757.21
3724.44
3714.23
3732.37
3734.46
)


// ************************************************************************* //
