/*--------------------------------*- C++ -*----------------------------------*\
  =========                 |
  \\      /  F ield         | OpenFOAM: The Open Source CFD Toolbox
   \\    /   O peration     | Website:  https://openfoam.org
    \\  /    A nd           | Version:  6
     \\/     M anipulation  |
\*---------------------------------------------------------------------------*/
FoamFile
{
    version     2.0;
    format      ascii;
    class       scalarField;
    location    "0.005/lagrangian/sprayCloud";
    object      d;
}
// * * * * * * * * * * * * * * * * * * * * * * * * * * * * * * * * * * * * * //


531
(
8.74447e-05
8.22089e-05
7.50711e-05
5.47046e-05
6.40046e-05
4.63606e-05
6.20041e-05
5.80375e-05
5.22553e-05
5.37763e-05
5.00691e-05
5.31348e-05
4.88019e-05
4.44794e-05
4.65681e-05
4.37202e-05
2.24189e-05
2.04548e-05
5.26055e-06
3.0251e-05
1.96823e-05
2.51609e-05
1.74854e-05
3.2758e-06
1.85964e-05
1.44808e-05
2.17337e-05
1.45307e-05
1.37076e-05
2.36746e-05
1.95526e-05
2.88244e-05
1.90916e-05
1.82103e-05
2.08101e-05
2.39933e-05
1.35353e-05
1.8391e-05
1.78192e-05
2.72183e-05
2.05395e-05
1.59179e-05
4.71587e-06
3.07103e-05
2.94822e-05
1.23123e-05
1.98705e-05
2.10765e-05
2.10486e-05
3.33984e-05
1.28462e-05
3.54812e-05
3.37736e-05
3.24709e-05
7.44922e-06
2.57129e-05
2.93129e-05
2.95849e-05
1.86811e-05
9.91029e-06
2.6508e-05
2.36886e-05
1.52092e-05
4.56291e-05
1.65334e-05
4.61776e-06
3.43443e-05
1.63774e-05
5.37949e-06
6.4695e-06
9.90398e-06
6.35891e-06
6.22889e-05
5.17925e-05
5.03145e-05
5.19684e-05
5.02088e-05
4.37785e-05
4.56502e-05
5.64151e-05
4.72306e-05
4.55391e-05
4.51372e-05
2.99708e-05
3.39718e-05
4.56669e-05
3.00431e-05
3.97548e-05
3.25373e-05
1.5792e-05
3.49653e-05
9.84686e-06
5.07857e-05
4.76696e-05
4.19582e-05
4.58612e-05
4.30774e-05
2.94664e-05
3.73411e-05
3.19687e-05
3.38333e-05
3.93653e-05
4.1083e-05
3.78518e-05
2.98852e-05
3.0333e-05
1.71667e-05
3.46512e-05
4.37924e-05
2.4061e-05
4.43147e-05
3.2961e-05
7.23911e-06
1.83869e-05
4.10327e-05
4.66054e-05
2.28147e-05
4.56786e-05
2.54554e-05
2.25176e-05
3.31152e-05
4.67758e-06
8.58298e-06
2.29442e-05
3.66282e-05
1.72291e-05
2.17899e-05
3.23842e-05
2.16709e-05
2.18519e-05
3.0311e-05
1.4062e-05
3.20669e-05
1.09749e-06
2.64135e-05
3.32868e-05
2.09802e-05
1.156e-05
1.27002e-05
1.28803e-05
3.03258e-05
1.50261e-05
1.86045e-05
1.80969e-05
3.77923e-05
2.65914e-05
4.6255e-06
2.19154e-05
3.18391e-05
9.23313e-06
4.55966e-05
3.3602e-05
2.27347e-05
2.52423e-05
3.1337e-05
1.84514e-05
2.31301e-05
2.06055e-05
2.63649e-05
2.70867e-05
4.99158e-05
1.39129e-05
2.25053e-05
1.10155e-05
2.66277e-05
4.53067e-05
2.30766e-05
1.31281e-05
1.93972e-05
1.57581e-05
3.27761e-05
5.41282e-05
1.4402e-05
2.0281e-05
3.34376e-06
3.82272e-05
5.292e-05
8.15483e-06
3.46198e-05
1.94556e-05
1.38049e-05
1.42566e-05
2.44464e-05
2.97775e-05
4.02628e-05
1.11244e-05
8.66932e-06
2.21524e-05
7.07376e-05
1.89162e-05
4.27906e-06
2.66965e-06
6.02421e-06
1.6164e-05
3.26544e-05
3.47906e-06
2.44523e-05
2.99727e-05
4.71472e-06
2.87724e-05
4.45338e-06
2.1716e-05
2.89048e-05
2.23475e-06
5.38046e-05
2.91598e-05
1.05003e-05
4.55881e-05
1.14469e-05
1.98243e-05
4.05271e-05
6.11694e-05
8.5747e-05
1.39256e-05
1.27579e-05
1.63953e-05
2.12746e-05
1.62145e-05
1.48907e-05
2.02828e-05
3.41107e-05
1.67497e-05
3.01235e-05
1.51193e-05
2.10774e-05
3.89155e-05
4.14805e-05
3.36217e-05
1.77173e-05
1.43755e-05
1.01005e-05
1.28005e-05
1.46852e-05
3.57414e-05
1.14249e-05
2.03822e-05
7.66746e-05
9.47985e-06
1.47243e-05
2.05827e-05
3.0978e-05
2.29601e-05
4.17292e-05
9.0965e-06
3.57726e-05
2.97839e-05
1.72967e-05
5.00489e-05
5.16631e-06
6.28334e-06
8.47799e-05
4.36164e-05
1.69405e-05
4.43954e-05
3.9066e-05
1.72524e-05
4.23035e-05
1.94254e-05
1.0221e-05
3.61902e-06
3.72554e-05
1.30708e-05
7.08368e-06
5.13807e-06
2.09155e-05
3.56585e-05
5.44667e-05
1.3115e-05
1.91689e-05
4.00468e-05
7.29132e-05
1.73378e-05
5.62492e-05
7.99668e-06
3.04705e-05
3.76685e-05
2.88505e-05
1.63655e-05
8.25397e-06
1.66993e-06
4.80581e-05
4.18601e-05
1.92899e-05
1.08741e-05
7.72043e-06
5.09983e-06
9.61376e-06
2.84242e-05
2.12645e-05
2.30713e-05
3.24059e-05
2.41678e-05
2.3971e-05
5.82556e-05
3.42333e-05
1.75115e-05
7.62325e-05
6.64823e-05
1.21603e-05
1.9816e-05
2.78757e-05
9.99292e-06
2.71927e-05
1.35985e-06
1.316e-05
1.43137e-05
2.24228e-05
2.42042e-05
2.80549e-05
3.79151e-05
3.43549e-05
5.34916e-05
7.8564e-06
3.84806e-05
3.76e-05
2.15363e-05
2.41458e-05
7.34859e-05
1.20524e-05
5.45748e-06
8.07755e-06
1.14795e-05
2.79998e-05
3.99969e-05
1.02116e-05
5.88183e-05
8.0402e-06
2.16453e-05
6.95008e-05
4.95309e-06
1.38896e-05
9.85236e-06
1.16786e-05
3.28228e-06
3.24176e-05
6.41539e-05
9.63403e-06
1.11912e-05
1.3243e-05
3.74502e-05
1.15506e-05
6.17485e-06
2.10052e-05
6.8898e-06
9.32806e-07
7.32044e-06
9.84401e-06
1.66541e-05
1.88003e-05
1.1351e-05
5.64005e-05
2.80916e-05
7.9166e-06
2.63801e-05
2.6662e-05
1.91971e-05
4.25218e-05
1.06357e-05
8.70776e-06
2.36909e-05
2.02983e-05
3.08194e-05
2.31949e-05
4.00109e-05
2.58615e-05
2.65182e-05
2.65767e-05
1.9501e-05
1.48354e-05
2.88462e-05
3.24961e-05
1.71553e-05
1.87689e-05
2.56617e-05
2.05677e-05
1.89868e-05
3.53414e-05
1.59634e-05
5.73439e-06
2.0966e-05
1.57658e-05
1.57436e-05
2.86249e-05
5.36089e-05
1.35765e-05
1.72759e-05
2.50839e-05
8.69439e-06
2.09441e-05
1.84865e-05
2.44861e-05
7.8609e-06
4.0307e-05
5.21481e-05
4.33507e-05
8.04762e-06
2.27236e-05
5.88337e-05
1.35247e-05
3.32176e-05
2.86664e-05
1.36627e-05
1.48312e-05
4.07222e-05
3.95577e-05
3.71158e-05
2.12804e-05
1.66635e-05
1.68665e-05
1.72293e-05
8.43122e-06
1.40377e-05
9.72834e-06
1.20986e-05
1.59454e-05
3.01611e-05
8.80321e-06
2.37058e-05
1.12965e-05
2.97341e-05
1.648e-05
1.63143e-05
3.97238e-05
1.38178e-05
5.69198e-06
9.00616e-06
1.294e-05
2.24638e-05
1.14368e-05
2.3702e-05
7.92797e-06
1.72182e-05
8.52515e-06
3.71308e-05
2.84865e-05
3.84136e-05
2.13541e-05
5.79785e-06
2.30936e-05
1.51162e-05
9.14745e-06
5.1095e-05
2.70983e-05
6.81274e-06
2.42078e-05
1.15611e-05
1.52906e-05
6.34657e-05
1.93325e-05
2.46538e-05
2.67858e-05
1.53784e-05
2.86952e-05
6.588e-06
2.14806e-05
3.37878e-05
4.44309e-05
1.06558e-05
1.3739e-05
3.48036e-05
9.59244e-06
1.99513e-05
1.92159e-05
1.08482e-05
6.74866e-06
1.35903e-05
2.10425e-05
2.51419e-05
1.36379e-05
4.1116e-05
2.97132e-05
8.92552e-06
2.99578e-05
8.23059e-06
1.54315e-06
2.40968e-05
4.83669e-05
4.73664e-05
1.46165e-05
1.11834e-05
1.55872e-05
1.24399e-05
8.39994e-05
2.81295e-05
1.84561e-05
1.37262e-05
3.8444e-05
1.63555e-05
1.33952e-05
9.00897e-06
5.26504e-05
1.52048e-05
3.89272e-05
7.81933e-06
1.90309e-05
2.92473e-05
5.26738e-06
1.96918e-05
1.54753e-05
7.27478e-06
4.40765e-05
1.66992e-05
1.38659e-05
5.67422e-05
1.67063e-05
1.09501e-05
1.76394e-05
1.37677e-05
1.94532e-05
1.4336e-05
2.39398e-05
3.85049e-05
2.03319e-05
1.73572e-05
4.67193e-06
5.64058e-05
1.2591e-05
9.98114e-06
1.99076e-05
3.13474e-05
3.18645e-05
2.73818e-05
3.97314e-05
1.36161e-05
1.20562e-05
7.48042e-06
3.92404e-05
1.75466e-05
1.08493e-05
2.64521e-05
3.96208e-05
)


// ************************************************************************* //
