/*--------------------------------*- C++ -*----------------------------------*\
  =========                 |
  \\      /  F ield         | OpenFOAM: The Open Source CFD Toolbox
   \\    /   O peration     | Website:  https://openfoam.org
    \\  /    A nd           | Version:  6
     \\/     M anipulation  |
\*---------------------------------------------------------------------------*/
FoamFile
{
    version     2.0;
    format      ascii;
    class       scalarField;
    location    "0.005/lagrangian/sprayCloud";
    object      d0;
}
// * * * * * * * * * * * * * * * * * * * * * * * * * * * * * * * * * * * * * //


531
(
8.93401e-05
8.41558e-05
8.06749e-05
6.11975e-05
7.1252e-05
5.27283e-05
6.9444e-05
6.6422e-05
6.02184e-05
6.02441e-05
5.55921e-05
6.10183e-05
5.58958e-05
5.00817e-05
5.28926e-05
5.17637e-05
2.60139e-05
2.54736e-05
2.07907e-05
3.51179e-05
2.37546e-05
2.84094e-05
3.12502e-05
2.29104e-05
2.94824e-05
2.9899e-05
3.29363e-05
2.41863e-05
3.19669e-05
2.83831e-05
2.39706e-05
3.30376e-05
3.17839e-05
2.46118e-05
2.63447e-05
3.46792e-05
3.01538e-05
2.511e-05
3.46013e-05
3.13554e-05
3.39153e-05
3.32414e-05
2.36442e-05
4.04335e-05
4.04247e-05
3.42776e-05
3.44437e-05
3.08214e-05
2.98391e-05
3.79999e-05
3.08789e-05
3.89999e-05
4.56861e-05
4.15484e-05
3.38033e-05
3.5126e-05
3.84305e-05
3.97938e-05
3.3722e-05
3.28904e-05
3.85609e-05
3.71544e-05
3.03563e-05
5.43294e-05
3.34489e-05
2.87034e-05
4.29995e-05
3.26974e-05
1.90971e-05
2.28041e-05
2.49316e-05
1.91687e-05
6.41823e-05
5.35417e-05
5.20924e-05
5.38683e-05
5.20716e-05
4.61688e-05
4.79622e-05
5.85709e-05
4.90393e-05
4.81202e-05
4.72997e-05
3.93388e-05
3.79499e-05
4.77848e-05
3.99705e-05
4.27861e-05
3.88334e-05
3.14949e-05
4.03196e-05
3.28581e-05
5.77684e-05
5.67871e-05
4.89451e-05
5.30265e-05
5.14784e-05
3.85189e-05
4.57296e-05
4.0608e-05
4.2631e-05
4.75308e-05
4.99634e-05
4.67883e-05
4.04069e-05
4.07719e-05
3.50676e-05
4.3745e-05
5.26388e-05
4.11257e-05
5.41454e-05
4.28207e-05
2.81028e-05
3.17057e-05
4.98442e-05
5.61294e-05
3.15789e-05
5.31457e-05
3.32639e-05
3.111e-05
4.02288e-05
2.58344e-05
2.58994e-05
3.5553e-05
4.46588e-05
3.03068e-05
3.21589e-05
4.46042e-05
3.39892e-05
3.34834e-05
4.04785e-05
2.99906e-05
4.17182e-05
2.7829e-05
3.69245e-05
4.25989e-05
3.30954e-05
2.908e-05
2.8453e-05
2.66962e-05
4.15514e-05
2.93882e-05
3.08088e-05
2.70336e-05
4.95581e-05
3.55146e-05
3.15838e-05
3.48176e-05
4.09624e-05
2.62307e-05
5.3081e-05
4.26553e-05
3.08551e-05
3.26997e-05
4.02407e-05
3.56342e-05
3.36937e-05
3.20225e-05
3.41589e-05
4.13952e-05
5.65536e-05
3.3907e-05
3.41239e-05
2.63964e-05
4.20582e-05
5.24571e-05
3.99177e-05
3.26142e-05
2.98862e-05
3.28014e-05
4.11625e-05
6.15548e-05
2.58779e-05
3.41029e-05
2.41304e-05
4.63142e-05
5.86081e-05
2.95873e-05
4.26081e-05
2.99217e-05
2.74244e-05
2.74618e-05
3.72902e-05
4.23359e-05
5.16482e-05
2.69477e-05
2.94599e-05
3.46014e-05
7.52389e-05
2.99545e-05
2.83101e-05
2.22735e-05
2.46944e-05
2.96307e-05
4.21086e-05
2.60595e-05
3.66461e-05
4.24188e-05
2.36672e-05
3.90729e-05
2.75103e-05
3.33471e-05
4.05247e-05
2.36145e-05
6.04917e-05
3.88218e-05
2.49052e-05
5.30204e-05
2.51915e-05
3.05578e-05
4.80023e-05
6.59723e-05
8.88687e-05
2.66004e-05
2.57409e-05
2.87029e-05
3.16431e-05
2.8006e-05
2.72609e-05
3.11981e-05
4.18769e-05
2.82124e-05
3.83266e-05
2.70421e-05
3.1202e-05
4.57269e-05
4.77542e-05
3.99187e-05
2.81588e-05
2.66997e-05
2.37627e-05
2.53693e-05
2.63756e-05
4.28915e-05
2.28926e-05
2.99418e-05
7.9737e-05
2.69754e-05
2.55997e-05
3.04601e-05
3.81446e-05
3.17812e-05
4.61989e-05
2.35572e-05
4.14165e-05
3.71531e-05
2.66281e-05
5.45715e-05
2.30974e-05
2.31364e-05
8.60017e-05
4.83222e-05
2.60353e-05
4.92021e-05
4.59979e-05
2.63698e-05
4.7823e-05
2.87948e-05
2.19377e-05
1.99294e-05
4.31937e-05
2.44669e-05
2.1717e-05
2.00842e-05
2.94738e-05
4.0903e-05
5.7992e-05
2.39987e-05
2.7493e-05
4.45327e-05
7.45749e-05
2.62291e-05
5.90573e-05
2.13381e-05
3.6003e-05
4.09956e-05
3.58018e-05
2.51823e-05
2.214e-05
1.92917e-05
5.15862e-05
4.5829e-05
2.65423e-05
2.12106e-05
1.8887e-05
1.70652e-05
1.9369e-05
3.49058e-05
2.89881e-05
2.98729e-05
3.63676e-05
2.84829e-05
2.84192e-05
6.01638e-05
3.75518e-05
2.31745e-05
7.56029e-05
6.6489e-05
1.91063e-05
2.44039e-05
3.13596e-05
1.97321e-05
2.9627e-05
1.89455e-05
1.95486e-05
2.03796e-05
2.6613e-05
2.67743e-05
3.12683e-05
4.23695e-05
3.68167e-05
5.58117e-05
1.524e-05
4.07061e-05
4.09436e-05
2.48398e-05
2.58816e-05
7.27079e-05
2.11192e-05
1.37555e-05
2.04049e-05
1.50254e-05
3.16661e-05
3.98094e-05
2.2149e-05
6.09071e-05
1.83062e-05
2.40434e-05
6.91496e-05
1.96965e-05
2.36644e-05
1.54316e-05
1.50884e-05
1.32617e-05
3.71043e-05
6.41184e-05
1.84739e-05
1.66928e-05
1.79151e-05
3.7493e-05
2.22773e-05
1.7509e-05
2.79727e-05
1.83733e-05
1.62511e-05
1.54798e-05
1.90179e-05
2.11199e-05
2.47582e-05
1.32909e-05
5.68824e-05
3.0786e-05
1.45597e-05
2.65145e-05
2.75131e-05
2.18598e-05
4.26671e-05
1.84898e-05
1.40232e-05
2.57507e-05
2.0598e-05
3.22588e-05
2.7466e-05
4.01775e-05
3.05872e-05
2.67697e-05
3.00312e-05
2.52445e-05
1.51298e-05
2.90539e-05
3.27237e-05
1.90616e-05
2.35752e-05
2.75876e-05
2.08879e-05
1.93049e-05
3.55792e-05
1.82105e-05
1.08482e-05
2.25741e-05
1.61063e-05
2.11634e-05
2.8863e-05
5.37925e-05
1.65413e-05
2.06553e-05
2.75009e-05
1.04972e-05
2.26628e-05
1.94363e-05
2.46673e-05
9.3433e-06
4.02386e-05
5.23121e-05
4.3443e-05
9.57614e-06
2.57063e-05
5.89926e-05
1.51796e-05
3.32292e-05
2.87928e-05
1.39587e-05
1.51243e-05
4.089e-05
3.96687e-05
3.70303e-05
2.1534e-05
1.69496e-05
1.71308e-05
1.96838e-05
8.78425e-06
1.43568e-05
1.54587e-05
1.72018e-05
1.62267e-05
3.03491e-05
9.17292e-06
2.39189e-05
1.16566e-05
2.99453e-05
2.05045e-05
1.65872e-05
3.99201e-05
1.76088e-05
1.16113e-05
9.29301e-06
1.33412e-05
2.27006e-05
1.1693e-05
2.39471e-05
1.28012e-05
1.74781e-05
1.31061e-05
3.71673e-05
3.02609e-05
3.91464e-05
2.15382e-05
1.02284e-05
2.32927e-05
1.53763e-05
9.4142e-06
5.11102e-05
2.73375e-05
1.08511e-05
2.44224e-05
1.17988e-05
1.55154e-05
6.35357e-05
2.09321e-05
2.59734e-05
2.69878e-05
1.56045e-05
2.88761e-05
6.93582e-06
2.1617e-05
3.37884e-05
4.45507e-05
1.15561e-05
1.49977e-05
3.49029e-05
9.82249e-06
2.00978e-05
2.08943e-05
1.10611e-05
6.99164e-06
1.37879e-05
2.12054e-05
2.52549e-05
1.38421e-05
4.07668e-05
2.98396e-05
9.1424e-06
3.08399e-05
8.45038e-06
7.56737e-06
2.4211e-05
4.84708e-05
4.73188e-05
1.47829e-05
1.21577e-05
1.73702e-05
1.36461e-05
8.39344e-05
2.82305e-05
1.86174e-05
1.38985e-05
3.83417e-05
1.64898e-05
1.35657e-05
9.18524e-06
5.19446e-05
1.53677e-05
3.90031e-05
7.96817e-06
1.91569e-05
2.93487e-05
7.79085e-06
1.97765e-05
1.56033e-05
7.41959e-06
4.41448e-05
1.68143e-05
1.39944e-05
5.67709e-05
1.67495e-05
1.10448e-05
1.77057e-05
1.4295e-05
1.95322e-05
1.44258e-05
2.39841e-05
3.85532e-05
2.02199e-05
1.7408e-05
5.66845e-06
5.64316e-05
1.26593e-05
1.0049e-05
1.99353e-05
3.13776e-05
3.18882e-05
2.74054e-05
3.9749e-05
1.36481e-05
1.20867e-05
7.52463e-06
3.92399e-05
1.7565e-05
1.08721e-05
2.64585e-05
3.9622e-05
)


// ************************************************************************* //
