/*--------------------------------*- C++ -*----------------------------------*\
  =========                 |
  \\      /  F ield         | OpenFOAM: The Open Source CFD Toolbox
   \\    /   O peration     | Website:  https://openfoam.org
    \\  /    A nd           | Version:  6
     \\/     M anipulation  |
\*---------------------------------------------------------------------------*/
FoamFile
{
    version     2.0;
    format      ascii;
    class       scalarField;
    location    "0.005/lagrangian/sprayCloud";
    object      mass0;
}
// * * * * * * * * * * * * * * * * * * * * * * * * * * * * * * * * * * * * * //


531
(
2.9331e-10
2.45154e-10
2.15975e-10
9.42731e-11
1.48791e-10
6.03e-11
1.3775e-10
1.20537e-10
8.98202e-11
8.99356e-11
7.06685e-11
9.34476e-11
7.1833e-11
5.16683e-11
6.08656e-11
5.7051e-11
7.24104e-12
6.79923e-12
3.69654e-12
1.78145e-11
5.51353e-12
9.43132e-12
1.2553e-11
4.94637e-12
1.05409e-11
1.0994e-11
1.46964e-11
5.81964e-12
1.34366e-11
9.40515e-12
5.66533e-12
1.48325e-11
1.32071e-11
6.13219e-12
7.52083e-12
1.71552e-11
1.12775e-11
6.51222e-12
1.70398e-11
1.26801e-11
1.60463e-11
1.51086e-11
5.43698e-12
2.719e-11
2.71724e-11
1.6566e-11
1.68079e-11
1.20433e-11
1.09281e-11
2.25702e-11
1.21108e-11
2.43992e-11
3.92228e-11
2.95018e-11
1.58878e-11
1.78268e-11
2.33461e-11
2.59198e-11
1.57734e-11
1.46351e-11
2.35846e-11
2.10969e-11
1.15063e-11
6.59617e-11
1.53934e-11
9.7272e-12
3.27023e-11
1.4379e-11
2.86476e-12
4.87779e-12
6.37435e-12
2.8971e-12
1.08751e-10
6.31339e-11
5.81446e-11
6.42966e-11
5.80752e-11
4.04792e-11
4.53819e-11
8.26479e-11
4.85087e-11
4.5832e-11
4.35273e-11
2.50409e-11
2.24811e-11
4.48804e-11
2.62667e-11
3.22176e-11
2.40881e-11
1.28501e-11
2.6961e-11
1.4592e-11
7.92974e-11
7.53245e-11
4.82298e-11
6.13289e-11
5.61129e-11
2.35076e-11
3.93351e-11
2.75437e-11
3.18686e-11
4.41684e-11
5.13031e-11
4.21306e-11
2.71365e-11
2.78784e-11
1.77381e-11
3.44328e-11
5.99934e-11
2.86105e-11
6.52938e-11
3.2296e-11
9.12927e-12
1.31098e-11
5.09367e-11
7.27375e-11
1.29532e-11
6.17436e-11
1.51393e-11
1.23847e-11
2.67792e-11
7.09223e-12
7.14592e-12
1.84849e-11
3.66359e-11
1.145e-11
1.36802e-11
3.65017e-11
1.61514e-11
1.5441e-11
2.72809e-11
1.10954e-11
2.98651e-11
8.86505e-12
2.07077e-11
3.17966e-11
1.49104e-11
1.01151e-11
9.47484e-12
7.82594e-12
2.95084e-11
1.04401e-11
1.20285e-11
8.12642e-12
5.00647e-11
1.84251e-11
1.29592e-11
1.73614e-11
2.82712e-11
7.42365e-12
6.15182e-11
3.19231e-11
1.20828e-11
1.43819e-11
2.68029e-11
1.86117e-11
1.57338e-11
1.35068e-11
1.63946e-11
2.91768e-11
7.4399e-11
1.60345e-11
1.63442e-11
7.56522e-12
3.06013e-11
5.93746e-11
2.61627e-11
1.42694e-11
1.09799e-11
1.45166e-11
2.86875e-11
9.59339e-11
7.12813e-12
1.6314e-11
5.77938e-12
4.0863e-11
8.28056e-11
1.06537e-11
3.18172e-11
1.10191e-11
8.48394e-12
8.51874e-12
2.1329e-11
3.12114e-11
5.66698e-11
8.04915e-12
1.05168e-11
1.704e-11
1.75192e-10
1.10553e-11
9.33282e-12
4.54517e-12
6.19418e-12
1.07007e-11
3.07114e-11
7.27926e-12
2.02427e-11
3.1395e-11
5.45291e-12
2.45366e-11
8.56393e-12
1.52532e-11
2.73745e-11
5.41659e-12
9.10489e-11
2.40666e-11
6.35418e-12
6.13078e-11
6.57583e-12
1.17369e-11
4.5496e-11
1.18106e-10
2.88691e-10
7.74201e-12
7.01551e-12
9.72664e-12
1.30324e-11
9.03521e-12
8.33316e-12
1.24903e-11
3.02072e-11
9.23647e-12
2.31573e-11
8.1341e-12
1.24949e-11
3.93281e-11
4.47942e-11
2.61647e-11
9.18392e-12
7.82898e-12
5.51917e-12
6.71602e-12
7.54734e-12
3.24564e-11
4.93484e-12
1.10413e-11
2.08529e-10
8.07407e-12
6.90064e-12
1.16247e-11
2.28289e-11
1.32038e-11
4.05586e-11
5.37725e-12
2.92217e-11
2.10946e-11
7.76618e-12
6.68473e-11
5.06843e-12
5.0942e-12
2.61642e-10
4.64115e-11
7.25895e-12
4.89935e-11
4.00315e-11
7.54235e-12
4.49881e-11
9.82043e-12
4.34269e-12
3.25591e-12
3.31472e-11
6.02453e-12
4.21297e-12
3.33233e-12
1.05316e-11
2.81484e-11
8.02214e-11
5.68528e-12
8.54774e-12
3.63264e-11
1.70594e-10
7.42226e-12
8.47244e-11
3.99629e-12
1.91957e-11
2.83399e-11
1.88756e-11
6.56859e-12
4.46394e-12
2.95323e-12
5.64661e-11
3.95921e-11
7.69133e-12
3.92505e-12
2.77126e-12
2.04417e-12
2.98887e-12
1.74936e-11
1.00195e-11
1.09653e-11
1.97847e-11
9.5047e-12
9.44108e-12
8.95763e-11
2.1781e-11
5.1194e-12
1.77747e-10
1.20903e-10
2.86891e-12
5.97809e-12
1.26852e-11
3.16016e-12
1.06967e-11
2.79709e-12
3.07282e-12
3.48154e-12
7.75297e-12
7.89482e-12
1.25748e-11
3.12857e-11
2.05268e-11
7.15093e-11
1.45594e-12
2.77437e-11
2.82323e-11
6.30422e-12
7.13113e-12
1.581e-10
3.87454e-12
1.07056e-12
3.49456e-12
1.3953e-12
1.30609e-11
2.59503e-11
4.46937e-12
9.29375e-11
2.52337e-12
5.71705e-12
1.36006e-10
3.14306e-12
5.45094e-12
1.51154e-12
1.41292e-12
9.59363e-13
2.10117e-11
1.08427e-10
2.59334e-12
1.91326e-12
2.36508e-12
2.1679e-11
4.5475e-12
2.20786e-12
9.00305e-12
2.55121e-12
1.76537e-12
1.52574e-12
2.82928e-12
3.87493e-12
6.24233e-12
9.65727e-13
7.57041e-11
1.20018e-11
1.26953e-12
7.66722e-12
8.5665e-12
4.29659e-12
3.19496e-11
2.60004e-12
1.1343e-12
7.0235e-12
3.59468e-12
1.38081e-11
8.52266e-12
2.66769e-11
1.17708e-11
7.8907e-12
1.11405e-11
6.6174e-12
1.42457e-12
1.00879e-11
1.44137e-11
2.84883e-12
5.38953e-12
8.63627e-12
3.74862e-12
2.95932e-12
1.85257e-11
2.48399e-12
5.25123e-13
4.73171e-12
1.71859e-12
3.89892e-12
9.89031e-12
6.40255e-11
1.86163e-12
3.62478e-12
8.55517e-12
4.75775e-13
4.78773e-12
3.02013e-12
6.17376e-12
3.35497e-13
2.67989e-11
5.88834e-11
3.37245e-11
3.61209e-13
6.98726e-12
8.44461e-11
1.4387e-12
1.50921e-11
9.81831e-12
1.11873e-12
1.42302e-12
2.81215e-11
2.56762e-11
2.08862e-11
4.10737e-12
2.00294e-12
2.06787e-12
3.13701e-12
2.78805e-13
1.2172e-12
1.51952e-12
2.09368e-12
1.75742e-12
1.1498e-11
3.17475e-13
5.62875e-12
6.51476e-13
1.10452e-11
3.54594e-12
1.87718e-12
2.61674e-11
2.24583e-12
6.43916e-13
3.30108e-13
9.76722e-13
4.81169e-12
6.57612e-13
5.64864e-12
8.62857e-13
2.19619e-12
9.26e-13
2.11189e-11
1.13981e-11
2.46752e-11
4.10974e-12
4.40154e-13
5.19811e-12
1.49533e-12
3.43192e-13
5.49175e-11
8.40356e-12
5.25536e-13
5.99174e-12
6.75621e-13
1.5363e-12
1.05497e-10
3.77244e-12
7.2073e-12
8.08515e-12
1.56292e-12
9.90381e-12
1.3724e-13
4.15502e-12
1.58669e-11
3.63707e-11
6.34773e-13
1.38759e-12
1.74893e-11
3.89809e-13
3.33913e-12
3.75207e-12
5.56654e-13
1.4058e-13
1.07816e-12
3.92218e-12
6.62557e-12
1.09093e-12
2.7868e-11
1.09286e-11
3.14317e-13
1.20649e-11
2.48208e-13
1.78247e-13
5.83746e-12
4.68411e-11
4.35801e-11
1.32882e-12
7.39156e-13
2.15576e-12
1.04524e-12
2.43224e-10
9.25426e-12
2.65425e-12
1.1043e-12
2.31846e-11
1.84429e-12
1.02688e-12
3.18756e-13
5.7651e-11
1.49283e-12
2.44053e-11
2.08096e-13
2.89177e-12
1.0398e-11
1.9451e-13
3.1815e-12
1.56257e-12
1.68007e-13
3.53854e-11
1.95533e-12
1.12733e-12
7.52601e-11
1.93281e-12
5.54195e-13
2.2831e-12
1.20154e-12
3.06506e-12
1.23483e-12
5.6749e-12
2.35704e-11
3.40034e-12
2.16985e-12
7.49169e-14
7.39185e-11
8.34471e-13
4.17408e-13
3.25878e-12
1.27071e-11
1.33376e-11
8.4663e-12
2.58324e-11
1.04568e-12
7.26282e-13
1.75244e-13
2.48524e-11
2.22912e-12
5.28605e-13
7.61873e-12
2.55856e-11
)


// ************************************************************************* //
