/*--------------------------------*- C++ -*----------------------------------*\
  =========                 |
  \\      /  F ield         | OpenFOAM: The Open Source CFD Toolbox
   \\    /   O peration     | Website:  https://openfoam.org
    \\  /    A nd           | Version:  6
     \\/     M anipulation  |
\*---------------------------------------------------------------------------*/
FoamFile
{
    version     2.0;
    format      ascii;
    class       scalarField;
    location    "0.005/lagrangian/sprayCloud";
    object      mu;
}
// * * * * * * * * * * * * * * * * * * * * * * * * * * * * * * * * * * * * * //


531
(
0.00126301
0.00125224
0.000833531
0.000950858
0.000815821
0.000993755
0.000816795
0.000899872
0.000907783
0.00107158
0.000792799
0.00102862
0.00101438
0.000866335
0.000751459
0.00092146
0.00102125
0.000930954
0.000610453
0.00124531
0.0010271
0.00113374
0.00100977
0.000440686
0.000890906
0.000846131
0.00111347
0.000823686
0.00066391
0.000874166
0.00100515
0.000865428
0.00105281
0.000977136
0.000810169
0.000954433
0.000781624
0.000904259
0.000826603
0.000857115
0.000992976
0.000951766
0.000441019
0.00116437
0.00102646
0.000709123
0.00109845
0.000720438
0.000735354
0.00109087
0.00078684
0.00119876
0.00109753
0.00117011
0.000482297
0.00102544
0.00109816
0.00106562
0.000796301
0.000440842
0.00109029
0.00102918
0.000440935
0.00113557
0.000832533
0.000563237
0.0011711
0.000440842
0.000879477
0.000440673
0.000627655
0.000635776
0.00130693
0.00125276
0.00125728
0.00126835
0.00122526
0.00057343
0.00114321
0.00127707
0.00121263
0.00114696
0.00119261
0.000438306
0.000858303
0.00111165
0.000457242
0.00118674
0.00112756
0.000440549
0.000953044
0.00044084
0.00110088
0.00111415
0.00113733
0.00113022
0.00115353
0.00100706
0.001136
0.00104778
0.00110762
0.00111228
0.00111995
0.00110172
0.00104084
0.00108664
0.000829052
0.00111677
0.00106987
0.00064344
0.00105187
0.0011151
0.000532661
0.00107183
0.00106869
0.00101708
0.000831858
0.00101932
0.00101161
0.000882192
0.00109309
0.000642383
0.000481373
0.00108992
0.00105054
0.000944368
0.000925235
0.00105774
0.00101033
0.00101598
0.00103021
0.00052412
0.00103588
0.0004406
0.00104081
0.00101511
0.000881941
0.00052941
0.000574305
0.000437938
0.000974291
0.000557356
0.000716686
0.000593919
0.000893673
0.000973938
0.00044084
0.000858179
0.000938268
0.000453082
0.000841569
0.000920876
0.000723193
0.000855125
0.000892885
0.000496883
0.000791989
0.000591781
0.000825971
0.000630265
0.000763126
0.000440778
0.000715631
0.000439931
0.000558426
0.000764705
0.000481373
0.000440575
0.000435434
0.000448652
0.000795852
0.000694476
0.000438024
0.000485348
0.000453082
0.000741854
0.000657003
0.000440951
0.000701027
0.000445927
0.000439845
0.000439978
0.000452776
0.000487933
0.000593962
0.000448652
0.000440849
0.000438306
0.000547219
0.000438194
0.000440884
0.000440087
0.00043988
0.000438337
0.000487681
0.000440943
0.000453082
0.000433186
0.000438092
0.000463821
0.000439732
0.000440024
0.000439083
0.000440349
0.000471198
0.000438418
0.000438974
0.000439978
0.000439329
0.000443442
0.000440087
0.000438265
0.000441803
0.000438905
0.000440288
0.000439417
0.000437098
0.000436205
0.00043664
0.000438919
0.000439329
0.000439475
0.000436354
0.000439007
0.000439079
0.000439329
0.00043938
0.000440589
0.000438296
0.000440221
0.000439922
0.000440167
0.000440243
0.000439657
0.000439675
0.000438919
0.000439243
0.000440975
0.000438913
0.00044019
0.000438527
0.000440221
0.000439726
0.000440911
0.000439801
0.000440167
0.000439922
0.000438913
0.000441115
0.000440809
0.000439675
0.000438124
0.000440332
0.000439997
0.000439207
0.000440353
0.000438492
0.000440268
0.00044173
0.00044116
0.000440175
0.000441856
0.000437973
0.000441139
0.000441065
0.000441219
0.000441803
0.000441119
0.000441096
0.000441135
0.000441891
0.000438557
0.00044116
0.000441015
0.00043973
0.000441158
0.000440065
0.000440065
0.000440429
0.000441104
0.000440368
0.000438557
0.000439396
0.000439396
0.000438792
0.000440061
0.000439396
0.000441104
0.000443833
0.000446088
0.000440907
0.000441034
0.000441075
0.000440907
0.000440907
0.000441026
0.000441324
0.000440859
0.000440811
0.000440264
0.000440811
0.000440625
0.000438706
0.00044146
0.000440673
0.00044077
0.000440239
0.000439838
0.000440439
0.000440935
0.000440239
0.000441036
0.000441571
0.000441522
0.000440962
0.000440671
0.000439018
0.000533158
0.000441201
0.000441656
0.00044115
0.00044183
0.000441563
0.000442042
0.000441076
0.000441223
0.000441065
0.00044479
0.000444705
0.000441106
0.000441065
0.000441022
0.000441236
0.000441444
0.00044118
0.000439582
0.000441096
0.00044134
0.000441225
0.000641211
0.000440348
0.000440733
0.000440609
0.000440845
0.000438217
0.000440098
0.000439376
0.000440866
0.000440954
0.000440374
0.000440932
0.000440942
0.000441046
0.000635376
0.000440596
0.000440859
0.000931027
0.00044069
0.000441229
0.00044144
0.00080207
0.000441229
0.000440749
0.000462264
0.000440587
0.000935886
0.000440987
0.000440597
0.000440529
0.000764781
0.000930702
0.00044155
0.000440876
0.000440765
0.000713002
0.00106607
0.00106445
0.000440597
0.000440539
0.000440597
0.000971075
0.000438547
0.000990992
0.0010685
0.000439882
0.000440563
0.000439882
0.000440329
0.000438713
0.000440035
0.000778291
0.000443664
0.000439509
0.00106066
0.000919658
0.000444641
0.000440559
0.00105998
0.000439361
0.000547572
0.00074038
0.000906579
0.00118335
0.00101494
0.000845976
0.000558682
0.00113082
0.00094839
0.0011236
0.000440811
0.000969504
0.00102666
0.000441978
0.00044313
0.00110063
0.00110804
0.000900566
0.00113051
0.000914682
0.00109327
0.000440947
0.00104219
0.00105438
0.00044088
0.000440743
0.00118604
0.000715319
0.000889816
0.00121114
0.00103816
0.000440734
0.00106871
0.000440734
0.000694426
0.000440492
0.000441348
0.00111273
0.000440745
0.00112685
0.00113799
0.00102434
0.000440745
0.000525783
0.000439898
0.00106207
0.000968324
0.00118157
0.00104462
0.000440344
0.000440512
0.00106153
0.00116991
0.00110929
0.000807442
0.00102379
0.000751562
0.00107284
0.000438673
0.000441379
0.00105829
0.00117865
0.00110767
0.000440885
0.00119837
0.00107233
0.00111884
0.00108906
0.001091
0.00079951
0.000440849
0.00108383
0.00118759
0.000440849
0.00110616
0.00044027
0.00109663
0.0010638
0.00086595
0.00116151
0.000441089
0.000440958
0.000441061
0.000962079
0.00108416
0.000441089
0.00115958
0.000441061
0.00113377
0.00096997
0.00123974
0.000485156
0.00111614
0.00106643
0.00124813
0.00101392
0.00106992
0.000440195
0.00109165
0.00103262
0.00125869
0.00104666
0.0010515
0.00112095
0.00105092
0.000440255
0.00114261
0.000945718
0.000440277
0.00109078
0.00111609
0.00106544
0.00105903
0.000440277
0.000969787
0.000440408
0.00105037
0.00110728
0.000908618
0.00106115
0.00105617
0.00103174
0.00103389
0.00103722
0.00107195
0.00107416
0.00111312
0.00101986
0.00105718
0.00106925
0.00104795
0.00104553
)


// ************************************************************************* //
