/*--------------------------------*- C++ -*----------------------------------*\
  =========                 |
  \\      /  F ield         | OpenFOAM: The Open Source CFD Toolbox
   \\    /   O peration     | Website:  https://openfoam.org
    \\  /    A nd           | Version:  6
     \\/     M anipulation  |
\*---------------------------------------------------------------------------*/
FoamFile
{
    version     2.0;
    format      ascii;
    class       scalarField;
    location    "0.005/lagrangian/sprayCloud";
    object      nParticle;
}
// * * * * * * * * * * * * * * * * * * * * * * * * * * * * * * * * * * * * * //


531
(
0.235861
0.27937
0.515572
0.632988
0.427167
0.943381
0.476434
0.887841
0.530335
0.986971
0.55663
0.632581
1.17414
1.72436
1.26057
1.44336
7.93086
9.46962
16.0482
4.18627
12.4219
7.1159
6.73685
14.4967
11.6296
9.04474
5.08282
11.7865
6.64781
6.10598
6.88688
4.8425
6.25567
10.7714
17.1923
3.05144
7.19718
10.253
2.87454
5.27708
3.07447
2.94214
13.673
1.76601
2.60363
2.32627
4.74495
4.5076
6.713
3.33951
5.41918
2.52864
2.23239
3.14198
2.7532
4.35551
2.63936
2.79079
4.52007
3.72914
3.17704
4.10272
7.25397
0.733828
4.00295
6.14419
2.67875
4.08446
19.3036
12.119
10.8285
27.1944
0.636134
1.96541
1.11981
1.04071
1.24871
2.072
1.70632
0.595386
1.14001
1.63117
1.93512
1.88182
2.8005
2.94495
3.1703
2.14244
2.47414
5.48794
4.19797
6.14987
0.981179
0.746132
1.09414
1.37509
1.3943
2.24481
1.24524
3.99409
2.55368
0.872505
0.910384
1.10754
1.90186
1.69581
3.2978
2.53202
0.623461
2.29393
1.07916
1.37638
5.47797
3.48283
0.855687
1.35466
5.02634
1.12851
3.66584
7.17583
2.00209
9.57506
11.0696
2.90044
1.79901
5.42046
5.23259
1.86042
5.03002
3.07124
1.74608
7.71905
2.35174
14.7135
2.93587
3.40193
7.287
11.187
8.58147
6.63061
2.56181
6.77426
5.94051
5.6853
1.42726
2.90469
5.63128
4.93028
2.59916
10.1145
1.40792
2.74238
6.6166
2.86554
2.097
5.29354
2.50011
3.88205
2.49219
2.62059
1.05898
3.43444
3.90204
9.28305
2.48079
1.21628
1.5617
4.46938
5.3913
4.6028
2.34668
0.795712
10.2022
4.74795
6.60543
0.972147
0.682641
5.31896
1.38848
3.99005
5.18233
4.51152
4.06007
2.23543
0.779562
7.98074
7.65949
4.69257
0.410542
6.33767
4.24785
12.9597
7.24738
7.00518
3.01238
8.82482
2.90989
2.2305
16.3434
3.00898
4.48771
5.86258
2.69119
14.7791
0.801413
2.56414
12.8275
0.643792
6.94877
5.51298
1.62711
0.698367
0.296566
11.0816
6.58162
11.2903
4.59867
9.35076
5.61354
3.55964
1.5494
9.7954
2.02003
13.0896
5.86136
1.67322
1.31647
1.75733
7.59669
8.40525
12.6409
7.93752
4.88003
2.74229
8.58024
3.78051
0.367963
11.5005
6.04898
9.20678
3.07787
3.68489
2.35523
8.55086
1.60144
3.46739
5.87515
0.682562
15.1244
9.75516
0.233057
1.25702
9.55876
1.41624
1.169
12.0499
2.24665
5.44769
17.615
21.409
1.61397
12.0354
14.124
21.1051
7.38134
2.53453
1.10853
7.39493
7.88149
1.45703
0.432832
10.7613
0.851369
21.1995
2.63577
2.51742
3.2153
7.31084
16.2999
14.236
1.33964
1.89204
5.33145
22.2184
29.9114
26.9582
37.3156
5.25262
5.0497
7.95476
5.27939
4.98799
5.20298
0.529262
4.77058
18.554
0.377988
0.631686
33.8193
9.69206
4.39792
17.634
5.60477
23.018
20.8375
18.3912
9.40926
10.1851
6.22029
2.14751
4.70349
1.02967
59.3502
3.58057
2.12354
13.4844
6.31829
0.510106
25.9395
79.4255
15.7694
48.7064
8.60677
2.68115
11.27
0.800557
31.4938
7.79109
0.608506
17.73
13.2883
29.468
42.269
70.8387
2.28246
0.698924
18.4928
51.9909
20.7294
3.97267
19.0416
31.6478
8.83695
36.1805
45.1779
46.3569
42.0056
29.2525
13.1517
84.2396
1.38984
5.10796
48.7367
8.06975
7.32131
14.5971
1.98542
24.3971
60.1611
11.4805
19.5959
6.05634
8.94511
1.61572
4.70496
7.01853
4.43426
15.1488
54.1841
7.61132
7.41051
29.8411
10.6632
6.65445
17.8524
22.6138
6.28964
25.4803
120.529
12.826
35.313
22.5841
11.2835
0.958872
37.4602
21.1002
9.93342
151.886
13.795
21.8688
12.7843
233.473
3.24487
1.63005
2.9588
138.125
7.14044
1.01723
55.7922
5.06731
7.00806
61.505
56.1207
3.1644
2.83555
3.48586
16.9294
62.088
54.0827
35.9161
196.859
45.0915
51.606
43.5484
42.9157
5.48593
198.685
11.5731
99.9918
8.79777
24.188
37.6525
3.55284
26.7624
93.3409
215.515
72.8388
12.2128
89.3601
11.4008
74.6344
36.0601
83.623
3.75091
6.07782
2.80751
30.6293
251.531
12.7752
44.4096
162.531
1.01569
7.25454
116.003
12.0623
115.31
52.7941
0.658984
20.6699
12.1506
11.9519
54.2185
9.12664
366.59
12.1084
6.46593
2.3905
188.028
52.179
4.26724
176.889
20.65
20.9533
132.086
581.133
83.6667
25.7368
14.8729
66.1327
2.90586
8.27157
262.589
3.75421
182.485
521.25
14.0656
1.84054
1.10218
36.147
63.1268
21.6446
57.9013
0.248826
6.87044
23.9544
64.5969
1.70934
21.4881
43.5729
140.37
0.862352
33.3028
2.79953
328.326
27.3139
8.1388
489.466
29.9249
33.511
311.674
2.05539
37.1962
71.1317
1.01916
43.6527
152.244
36.9554
33.1596
12.999
64.5311
7.48891
1.80306
23.3303
31.9905
926.556
0.851032
75.3856
168.898
19.8308
5.08569
6.27292
4.94413
1.62039
45.7942
65.9332
209.771
1.47917
34.7185
146.407
10.1581
3.02482
)


// ************************************************************************* //
