/*--------------------------------*- C++ -*----------------------------------*\
  =========                 |
  \\      /  F ield         | OpenFOAM: The Open Source CFD Toolbox
   \\    /   O peration     | Website:  https://openfoam.org
    \\  /    A nd           | Version:  6
     \\/     M anipulation  |
\*---------------------------------------------------------------------------*/
FoamFile
{
    version     2.0;
    format      ascii;
    class       labelField;
    location    "0.005/lagrangian/sprayCloud";
    object      origId;
}
// * * * * * * * * * * * * * * * * * * * * * * * * * * * * * * * * * * * * * //


531
(
30
44
329
328
380
324
384
344
364
196
447
248
304
435
464
398
14
52
71
88
43
61
139
24
99
146
170
86
218
13
58
3
201
60
50
126
172
72
187
28
180
287
19
125
145
220
254
66
38
87
279
75
288
137
235
171
193
215
142
185
280
272
40
128
192
338
156
11
7
37
82
56
31
15
16
29
18
20
64
77
8
65
47
69
84
42
0
81
107
46
90
106
162
133
182
181
169
183
186
200
212
219
210
227
239
233
241
261
265
278
267
286
292
289
294
301
317
320
326
330
332
334
337
333
341
342
348
335
351
362
365
368
372
369
374
378
388
389
395
400
392
403
404
410
405
423
402
416
425
428
429
427
434
439
437
430
448
450
459
446
469
443
466
472
461
478
460
465
483
475
488
489
494
486
493
501
502
480
507
512
511
517
510
504
506
516
499
519
524
534
496
532
526
529
543
515
533
530
540
546
518
551
538
539
556
558
568
565
569
573
576
577
579
575
581
590
588
599
606
594
605
611
607
610
616
615
618
622
625
614
626
624
629
630
639
633
636
587
632
631
641
634
650
621
654
645
651
652
602
620
659
657
662
663
655
667
664
673
668
669
672
679
674
676
683
692
694
686
696
698
699
693
707
685
703
711
691
701
677
687
706
708
714
713
712
717
719
705
704
716
728
731
730
732
735
733
746
747
737
742
739
724
751
688
743
744
754
758
756
745
760
753
759
761
750
764
768
770
736
767
718
780
773
783
727
779
762
787
789
725
752
786
793
781
777
796
776
792
800
803
749
774
775
785
788
798
801
802
804
805
806
808
809
810
811
812
813
814
816
817
818
820
821
823
824
825
826
828
829
830
831
832
834
835
836
837
838
839
840
841
842
843
844
846
847
849
850
851
852
853
854
855
856
857
858
859
860
861
862
863
864
865
867
868
869
870
871
872
873
874
875
876
877
878
879
881
882
883
884
885
886
887
888
889
890
891
892
893
894
895
896
898
899
900
901
902
903
904
905
906
907
908
909
910
911
912
913
914
915
916
917
918
919
920
921
922
923
924
925
926
927
928
929
931
932
933
934
935
936
937
938
939
940
941
942
943
944
945
946
947
948
949
950
951
952
953
954
955
956
957
958
959
960
961
962
963
964
965
966
967
968
969
970
971
972
973
974
975
976
977
978
979
980
981
982
983
984
985
986
987
988
989
990
991
992
993
994
995
996
997
998
)


// ************************************************************************* //
