/*--------------------------------*- C++ -*----------------------------------*\
  =========                 |
  \\      /  F ield         | OpenFOAM: The Open Source CFD Toolbox
   \\    /   O peration     | Website:  https://openfoam.org
    \\  /    A nd           | Version:  6
     \\/     M anipulation  |
\*---------------------------------------------------------------------------*/
FoamFile
{
    version     2.0;
    format      ascii;
    class       vectorField;
    location    "0.005/lagrangian/sprayCloud";
    object      position0;
}
// * * * * * * * * * * * * * * * * * * * * * * * * * * * * * * * * * * * * * //


531
(
(0.000217808 0.00504492 0)
(0.00022411 0.0020577 0)
(0.000392803 0.00268172 -6.77626e-21)
(0.000294896 0.00338458 6.77626e-21)
(0.000335076 0.00438227 -2.11758e-20)
(0.000492312 0.000907954 3.38813e-21)
(0.000545171 0.00426944 1.35525e-20)
(0.000398708 0.00452442 -6.77626e-21)
(0.000185638 0.00350282 -1.35525e-20)
(0.000504952 0.00113157 2.11758e-22)
(0.000450074 0.00178532 0)
(0.000378185 0.00292705 -1.01644e-20)
(0.000509655 0.00319825 0)
(0.000282067 0.00172807 6.77626e-21)
(0.000162491 0.00121658 1.90582e-21)
(0.000216657 0.00231817 -5.0822e-21)
(0.000381009 0.00511291 6.77626e-21)
(0.000205629 0.00497464 1.35525e-20)
(0.000400575 0.00503169 1.35525e-20)
(0.000450874 0.00450133 -5.0822e-21)
(0.00037877 0.00487709 -1.01644e-20)
(0.000327845 0.00438146 -2.28699e-20)
(0.000435785 0.00323552 -1.69407e-20)
(0.000498864 0.00274337 8.47033e-22)
(0.000138616 0.00454749 -8.47033e-21)
(0.000387124 0.00393933 -6.77626e-21)
(0.000217781 0.00455279 0)
(0.000294545 0.00387355 -1.35525e-20)
(0.000352698 0.00508397 1.18585e-20)
(0.000346833 0.00387452 -6.77626e-21)
(0.000225801 0.00455568 -1.35525e-20)
(0.000296992 0.00499108 0)
(0.000542537 0.00458607 1.35525e-20)
(0.000473091 0.00292725 -6.77626e-21)
(0.000168372 0.00394986 -1.35525e-20)
(0.000359841 0.00418307 -1.35525e-20)
(0.000289998 0.00376877 -1.35525e-20)
(0.000227338 0.00192868 -4.65868e-21)
(0.000192838 0.00512077 6.77626e-21)
(0.00049699 0.00458482 6.77626e-21)
(0.000565956 0.0040979 0)
(0.000440792 0.00478823 0)
(0.000486387 0.00147506 0)
(0.000324889 0.00356158 -2.5411e-21)
(0.000245973 0.00521516 8.47033e-22)
(0.000334634 0.00515786 1.35525e-20)
(0.000467188 0.00353203 -6.77626e-21)
(0.00016768 0.0036627 0)
(0.000199791 0.00356896 -1.01644e-20)
(0.000275612 0.00515745 2.03288e-20)
(0.000265247 0.003805 0)
(0.000245848 0.00484737 0)
(0.00027562 0.00524055 3.38813e-21)
(0.000233588 0.00358324 -1.01644e-20)
(0.000167935 0.0032247 -6.77626e-21)
(0.000448167 0.00321196 6.77626e-21)
(0.000559123 0.00413405 6.77626e-21)
(0.000231256 0.00464817 0)
(0.000191996 0.00236928 -3.38813e-21)
(0.000332011 0.00287632 -6.77626e-21)
(0.000427694 0.00432526 0)
(0.000406934 0.00418554 -1.35525e-20)
(0.00036965 0.00308849 0)
(0.000270955 0.00496281 2.5411e-20)
(0.000219925 0.00211911 0)
(0.000531285 0.00411721 -2.71051e-20)
(0.000204493 0.00434362 -1.35525e-20)
(0.000164742 0.00166953 0)
(0.000541208 0.00464113 -1.69407e-21)
(0.000544398 0.00512014 3.38813e-21)
(0.000382473 0.00524432 6.77626e-21)
(0.0005053 0.00443062 -1.35525e-20)
(0.000438615 0.00360654 -6.77626e-21)
(0.000178988 0.00222871 0)
(0.000161926 0.00266063 -5.0822e-21)
(0.000522987 0.00332925 7.19978e-21)
(0.000144677 0.00467206 0)
(0.0002883 0.000897099 -2.5411e-21)
(0.000341253 0.00216413 4.65868e-21)
(0.000267642 0.00456756 0)
(0.000153133 0.00485533 2.71051e-20)
(0.000184064 0.00416255 -1.35525e-20)
(0.000417347 0.00521472 1.69407e-20)
(0.000175591 0.000246139 0)
(0.000283655 0.00339149 3.38813e-21)
(0.000529454 0.00521857 6.77626e-21)
(0.000159663 0.00148753 0)
(0.000234272 0.00521353 1.35525e-20)
(0.00040422 0.00418005 1.69407e-20)
(0.000415153 0.00129612 5.0822e-21)
(0.00041556 0.00432373 -1.35525e-20)
(0.000429099 0.00162054 1.69407e-21)
(0.000451762 0.00212317 3.38813e-21)
(0.000252612 0.00463877 3.38813e-21)
(0.000371186 0.00259021 6.77626e-21)
(0.000371473 0.00332475 -9.31736e-21)
(0.000252076 0.00430439 0)
(0.000179397 0.00332849 1.27055e-20)
(0.000186714 0.00432789 2.03288e-20)
(0.000529349 0.00316865 -6.77626e-21)
(0.000217601 0.00295208 -6.77626e-21)
(0.000360073 0.00309574 0)
(0.00054152 0.00504605 2.03288e-20)
(0.000186439 0.00432646 -1.35525e-20)
(0.00047958 0.0022505 0)
(0.000516358 0.0037054 -6.77626e-21)
(0.000516038 0.00203808 -2.11758e-21)
(0.000162101 0.00324673 -6.77626e-21)
(0.000488398 0.00403257 -9.31736e-21)
(0.0002642 0.000211046 0)
(0.000147447 0.0047457 -1.69407e-20)
(0.000299642 0.00394075 1.35525e-20)
(0.000301085 0.00252889 -5.0822e-21)
(0.000546688 0.00335754 8.47033e-21)
(0.000301088 0.00376325 0)
(0.000494825 0.00460538 6.77626e-21)
(0.000154918 0.00155722 0)
(0.000218813 0.00361441 -1.35525e-20)
(0.00052396 0.00162218 3.38813e-21)
(0.00024545 0.00168164 0)
(0.000324975 0.00183908 -3.38813e-21)
(0.000442814 0.0023758 0)
(0.000319154 0.00195286 1.69407e-21)
(0.000342089 0.00401611 6.77626e-21)
(0.000429964 0.00339201 0)
(0.000452945 0.00344524 -8.47033e-21)
(0.000554149 0.0027604 -1.69407e-21)
(0.000367124 0.00499483 -2.03288e-20)
(0.000167942 0.00384932 3.38813e-21)
(0.000455116 0.00308295 -5.66453e-21)
(0.000497403 0.00371773 -3.38813e-21)
(0.00015678 0.00290244 -1.35525e-20)
(0.000270209 0.0019534 -3.38813e-21)
(0.000151139 0.00390381 3.38813e-21)
(0.000424521 0.00317225 0)
(0.000465792 0.00362726 -3.38813e-21)
(0.000312515 0.00322656 0)
(0.00011638 0.00386147 0)
(0.000290231 0.00310281 -6.77626e-21)
(0.00036156 0.00160389 -3.38813e-21)
(0.000428339 0.00468627 -6.77626e-21)
(0.000152352 0.00338573 6.77626e-21)
(0.000354548 0.00283803 0)
(0.000428102 0.00132974 0)
(0.0004627 0.00511432 3.38813e-21)
(0.000447505 0.00233413 0)
(0.000555708 0.00497846 0)
(0.000363129 0.00438361 -1.52466e-20)
(0.000350755 0.00348005 -5.0822e-21)
(0.000400779 0.00219924 -1.69407e-21)
(0.000481125 0.00333896 6.77626e-21)
(0.000188415 0.00369223 -1.69407e-20)
(0.000138455 0.00104846 4.23516e-22)
(0.000140333 0.00171438 0)
(0.000258519 0.00370967 -6.77626e-21)
(0.000186222 0.00477346 6.77626e-21)
(0.000259898 0.00369402 -8.47033e-21)
(0.000144821 0.00326046 -2.03288e-20)
(0.000380623 0.00132166 0)
(0.000250918 0.0050774 -5.92923e-21)
(0.000346566 0.00272998 -6.77626e-21)
(0.000217533 0.00505871 0)
(0.000135259 0.00343613 6.77626e-21)
(0.000222803 0.00213439 0)
(0.000451708 0.00495828 -1.35525e-20)
(0.000526093 0.00287364 0)
(0.000354033 0.00506951 1.35525e-20)
(0.000338131 0.00461542 -3.38813e-21)
(0.000510624 0.00110309 0)
(0.000141612 0.00422404 -6.98802e-21)
(0.000567257 0.00267501 -3.38813e-21)
(0.00055202 0.00402624 -1.05879e-20)
(0.000228649 0.000762058 -2.5411e-21)
(0.000205227 0.00379624 6.77626e-21)
(0.000137981 0.00258143 0)
(0.00055556 0.00295388 -1.35525e-20)
(0.000409293 0.00197635 -1.69407e-21)
(0.000289341 0.00478407 0)
(0.000526956 0.00208343 3.38813e-21)
(0.000468235 0.0013915 -8.47033e-21)
(0.000142495 0.00227318 -5.50571e-21)
(0.000399464 0.00204481 -1.05879e-21)
(0.000166236 0.0040423 -6.77626e-21)
(0.000125451 0.00471572 -4.06576e-20)
(0.00027798 0.00500349 0)
(0.000369523 0.00333473 5.92923e-21)
(0.000555113 0.00486196 6.77626e-21)
(0.000375008 0.00371812 -2.71051e-20)
(0.000120234 0.00176212 0)
(0.000489335 0.0015597 -6.77626e-21)
(0.000174122 0.00522385 1.35525e-20)
(0.00044283 0.00198563 3.38813e-21)
(0.00031599 0.00371649 -1.01644e-20)
(0.000167239 0.00378916 -1.35525e-20)
(0.000272435 0.00212807 0)
(0.000207008 0.00481592 6.77626e-21)
(0.000270006 0.00452348 -2.03288e-20)
(0.000450962 0.00510458 1.69407e-20)
(0.00052878 0.00380819 3.38813e-21)
(0.000121263 0.00251059 -1.35525e-20)
(0.000220107 0.00502634 1.35525e-20)
(0.000521168 0.00238003 1.69407e-21)
(0.000256048 0.00485316 2.71051e-20)
(0.000343944 0.00437717 1.69407e-21)
(0.000418306 0.00210946 3.38813e-21)
(0.000378259 0.00230381 -5.0822e-21)
(0.000481566 0.00269567 3.38813e-21)
(0.000554967 0.0043204 -3.38813e-21)
(0.000366239 0.0032185 -9.31736e-21)
(0.000251262 0.0015014 -5.0822e-21)
(0.000405721 0.00352064 -2.03288e-20)
(0.000549844 0.00328885 3.38813e-21)
(0.000495133 0.000761002 -1.69407e-21)
(0.000520356 0.00398533 3.38813e-21)
(0.000343654 0.00237347 -6.77626e-21)
(0.00018193 0.00205643 0)
(0.000527784 0.00416596 2.71051e-20)
(0.000458436 0.00319466 0)
(0.00053494 0.00240953 5.0822e-21)
(0.000318086 0.0043641 0)
(0.00057196 0.00346503 -3.38813e-21)
(0.000452946 0.00202811 -3.38813e-21)
(0.000155841 0.00371312 -6.77626e-21)
(0.000330575 0.00327188 -6.77626e-21)
(0.000502894 0.00280529 0)
(0.000146603 0.00392364 0)
(0.000548399 0.00316045 6.77626e-21)
(0.000396094 0.00150417 -1.18585e-20)
(0.000398846 0.00237666 -6.77626e-21)
(0.000572361 0.00433323 0)
(0.000563229 0.00364282 0)
(0.000528108 0.00404671 3.38813e-21)
(0.000228713 0.00384091 -1.01644e-20)
(0.000413883 0.00446957 -1.35525e-20)
(0.000298722 0.00129283 -1.69407e-21)
(0.000254973 0.00367255 -1.86347e-20)
(0.000433727 0.00500952 3.38813e-21)
(0.000482597 0.00515416 2.03288e-20)
(0.000127284 0.00382185 0)
(0.000348439 0.00446332 -3.38813e-20)
(0.000209649 0.00363159 6.77626e-21)
(0.000386432 0.0046096 -4.46016e-21)
(0.000541192 0.00263715 -1.69407e-21)
(0.000193653 0.00483838 1.35525e-20)
(0.000423346 0.0014372 0)
(0.000564421 0.00462106 0)
(0.000396628 0.00295923 0)
(0.000396034 0.00408452 -6.77626e-21)
(0.000428994 0.00518412 2.71051e-20)
(0.000539356 0.0049074 -1.35525e-20)
(0.000493986 0.00269595 0)
(0.000174883 0.0035282 -6.98802e-21)
(0.00026102 0.00310219 6.77626e-21)
(0.000190739 0.0040348 -1.69407e-21)
(0.000470871 0.00510816 6.77626e-21)
(0.000503047 0.00276826 3.38813e-21)
(0.000524378 0.00477917 -6.77626e-21)
(0.000294157 0.00154474 3.38813e-21)
(0.000270875 0.00312527 -4.23516e-21)
(0.000161479 0.00267096 -1.69407e-20)
(0.000332 0.00440618 -1.01644e-20)
(0.000281724 0.00150352 3.38813e-21)
(0.000213716 0.00189693 0)
(0.000465324 0.0033941 -3.38813e-21)
(0.000471116 0.0039773 -6.77626e-21)
(0.000472614 0.00366752 0)
(0.000454247 0.00383061 -6.77626e-21)
(0.00015536 0.00351701 0)
(0.000256672 0.00225359 -6.77626e-21)
(0.000496433 0.00349852 -6.77626e-21)
(0.000230427 0.00419718 -3.38813e-21)
(0.000516334 0.00439244 -2.71051e-20)
(0.000390831 0.00423275 6.77626e-21)
(0.000202821 0.00412494 -6.77626e-21)
(0.000308963 0.00421993 1.35525e-20)
(0.000404809 0.00116094 -1.69407e-21)
(0.000479435 0.00494067 -2.71051e-20)
(0.000299181 0.00385852 1.35525e-20)
(0.000309626 0.00457103 0)
(0.000521831 0.00376452 -1.35525e-20)
(0.000464892 0.00464669 0)
(0.000235487 0.00400361 1.35525e-20)
(0.000371911 0.0034578 4.23516e-21)
(0.000286566 0.00319629 -3.01755e-20)
(0.000156561 0.00283974 2.5411e-21)
(0.000347164 0.00213076 0)
(0.000130006 0.00201915 3.38813e-21)
(0.000527813 0.00523151 2.03288e-20)
(0.000300856 0.00480165 6.77626e-21)
(0.000308552 0.00454679 -3.04932e-20)
(0.00048419 0.00395181 -8.47033e-21)
(0.000333313 0.00293944 0)
(0.000152586 0.00321425 -1.35525e-20)
(0.000332056 0.00458784 0)
(0.00047498 0.00418901 6.77626e-21)
(0.000392332 0.00370725 -3.38813e-21)
(0.000476378 0.00289299 -6.77626e-21)
(0.000492875 0.00147266 3.38813e-21)
(0.00026417 0.00314206 3.38813e-21)
(0.000322504 0.00289647 -1.01644e-20)
(0.00020363 0.00378425 6.77626e-21)
(0.000192358 0.00434615 0)
(0.000262186 0.00239273 -1.35525e-20)
(0.000422771 0.00480924 0)
(0.000258445 0.00382264 2.5411e-21)
(0.000427931 0.00357438 -5.92923e-21)
(0.00048028 0.00303477 6.77626e-21)
(0.000492731 0.00221063 3.38813e-21)
(0.000516539 0.00351858 -2.03288e-20)
(0.000539876 0.00490821 -2.71051e-20)
(0.000499752 0.00350098 -6.77626e-21)
(0.000335092 0.00501909 6.77626e-21)
(0.000187647 0.00267871 -6.77626e-21)
(0.000558667 0.00408347 -6.77626e-21)
(0.000144028 0.00488276 1.69407e-21)
(0.000127347 0.0029754 -5.0822e-21)
(0.000558414 0.0021643 0)
(0.000545397 0.00104843 0)
(0.000151049 0.00464109 0)
(0.000171086 0.00316123 6.77626e-21)
(0.000156522 0.00497646 1.35525e-20)
(0.000384382 0.00102383 1.69407e-21)
(0.000340569 0.00397106 -6.77626e-21)
(0.000488674 0.00159361 2.5411e-21)
(0.000124617 0.00500879 6.77626e-21)
(0.000328411 0.00500153 -1.35525e-20)
(0.000339586 0.00425506 -1.56701e-20)
(0.000449612 0.00271666 0)
(0.000562254 0.0036739 1.16467e-21)
(0.000124922 0.00496703 1.35525e-20)
(0.00034528 0.00498637 0)
(0.000423008 0.00307462 6.77626e-21)
(0.000369435 0.000387693 -2.5411e-21)
(0.000481189 0.00351644 -6.77626e-21)
(0.000537152 0.00492072 0)
(0.000131982 0.00395269 1.35525e-20)
(0.000304043 0.00441451 -3.38813e-20)
(0.000152605 0.00319152 -1.01644e-20)
(0.000121407 0.00274086 -1.35525e-20)
(0.000302522 0.00232062 3.38813e-21)
(0.000136998 0.00524556 -6.77626e-21)
(0.000226759 0.00465315 6.77626e-21)
(0.000442328 0.00519216 5.92923e-21)
(0.000414835 0.00523433 1.35525e-20)
(0.000519397 0.00465417 -1.18585e-20)
(0.000247814 0.00414968 -1.35525e-20)
(0.000135856 0.00474752 -1.35525e-20)
(0.000381603 0.00336194 1.01644e-20)
(0.000394764 0.00461239 -1.27055e-20)
(0.000575906 0.00173159 0)
(0.000431584 0.00440831 -1.69407e-20)
(0.000151165 0.00345443 6.77626e-21)
(0.000221565 0.00333714 8.47033e-21)
(0.00052236 0.00154727 -3.38813e-21)
(0.000545725 0.00247564 3.38813e-21)
(0.000294282 0.00270902 6.77626e-21)
(0.000134623 0.00136085 -3.38813e-21)
(0.000278275 0.00504166 0)
(0.000473488 0.0027668 -1.69407e-21)
(0.000239004 0.00301069 -1.35525e-20)
(0.000188037 0.00158455 0)
(0.000445071 0.00338474 -3.38813e-21)
(0.000571888 0.00481987 -3.38813e-21)
(0.000225365 0.00281724 6.77626e-21)
(0.000406172 0.00521351 -3.38813e-21)
(0.000435791 0.0017045 1.69407e-21)
(0.000247487 0.0045543 0)
(0.000275864 0.00499128 1.35525e-20)
(0.000400338 0.000554694 8.47033e-22)
(0.000127964 0.00236219 -6.77626e-21)
(0.000374471 0.00222157 3.38813e-21)
(0.000549673 0.00313553 -1.01644e-20)
(0.000192615 0.00482332 6.77626e-21)
(0.0001399 0.0040505 3.38813e-21)
(0.00011955 0.00255833 6.77626e-21)
(0.000571957 0.00132883 2.96462e-21)
(0.000346489 0.00141814 -3.38813e-21)
(0.000399446 0.00356115 -1.35525e-20)
(0.000497227 0.00336123 3.38813e-21)
(0.000507679 0.00366851 0)
(0.000490145 0.00175983 3.38813e-21)
(0.00036362 0.00520155 -2.28699e-20)
(0.000158633 0.00214338 -4.23516e-21)
(0.000501862 0.00168201 -3.17637e-21)
(0.000374227 0.0038441 3.38813e-21)
(0.000393877 0.00443997 -1.35525e-20)
(0.000178917 0.00420133 2.71051e-20)
(0.000455474 0.00288879 -1.01644e-20)
(0.000480053 0.00396546 -3.38813e-21)
(0.000236886 0.00359638 0)
(0.000116709 0.00255877 -6.77626e-21)
(0.000155423 0.00266316 3.38813e-21)
(0.000451528 0.00391407 -6.77626e-21)
(0.000276057 0.0018258 -3.38813e-21)
(0.000460999 0.00263764 -1.69407e-21)
(0.000437475 0.00294117 3.38813e-21)
(0.000366522 0.00514103 2.71051e-20)
(0.000543373 0.00217048 0)
(0.000148089 0.00389593 -6.77626e-21)
(0.000452864 0.00389066 -6.77626e-21)
(0.00054405 0.0035228 -6.77626e-21)
(0.000341465 0.00212107 -6.77626e-21)
(0.000128027 0.00113553 -6.77626e-21)
(0.00016335 0.00276237 0)
(0.000248967 0.00404025 -5.0822e-21)
(0.000487337 0.00436634 0)
(0.000467475 0.00149943 0)
(0.000550111 0.00276008 -6.77626e-21)
(0.000462085 0.00175199 -3.38813e-21)
(0.000339315 0.00465702 -6.77626e-21)
(0.000570498 0.0022834 -2.96462e-21)
(0.000311978 0.00310986 -4.23516e-22)
(0.000475003 0.00494045 0)
(0.000175559 0.00501343 0)
(0.000451734 0.00282973 0)
(0.000232334 0.00101593 0)
(0.000310451 0.00326582 1.35525e-20)
(0.000274577 0.00161581 -5.0822e-21)
(0.000328724 0.00364162 -6.77626e-21)
(0.000492664 0.00256291 3.38813e-21)
(0.000292355 0.00519673 1.35525e-20)
(0.000348424 0.0034822 -5.0822e-21)
(0.000252299 0.00350699 -6.77626e-21)
(0.00030281 0.00486713 -5.0822e-21)
(0.000121705 0.004626 -2.03288e-20)
(0.000210852 0.00254515 -3.38813e-21)
(0.000140358 0.0040563 0)
(0.000225825 0.00403104 -1.35525e-20)
(0.000541613 0.00101508 0)
(0.000451147 0.00374954 -6.77626e-21)
(0.000219905 0.00478725 -6.77626e-21)
(0.000500803 0.00353667 -1.35525e-20)
(0.000318201 0.00468081 -6.77626e-21)
(0.000263094 0.00429546 6.77626e-21)
(0.000571067 0.00512515 1.35525e-20)
(0.000444421 0.00472066 0)
(0.000210952 0.00111767 -1.69407e-21)
(0.000515853 0.00444983 -6.77626e-21)
(0.000425051 0.00209172 0)
(0.000238322 0.00344544 6.77626e-21)
(0.000484028 0.00148392 -8.68209e-21)
(0.000416436 0.00505002 -6.77626e-21)
(0.000411702 0.00428871 5.0822e-21)
(0.000436363 0.00480762 0)
(0.000147248 0.00355472 -6.77626e-21)
(0.000316438 0.00166103 0)
(0.000320833 0.00222669 3.38813e-21)
(0.000445642 0.0014988 -8.47033e-21)
(0.000440464 0.00482085 0)
(0.000287565 0.00521251 -1.10114e-20)
(0.000439804 0.00364865 -1.35525e-20)
(0.000473318 0.00287025 0)
(0.000125358 0.00278125 0)
(0.000434143 0.0016203 -3.38813e-21)
(0.000231774 0.0016549 3.38813e-21)
(0.000313842 0.00421289 0)
(0.00015212 0.00240893 0)
(0.000201174 0.00426665 0)
(0.000493424 0.00468854 -6.77626e-21)
(0.000341848 0.00150296 -5.0822e-21)
(0.000544716 0.00334414 3.38813e-21)
(0.000426169 0.00131278 0)
(0.000230956 0.00492492 -1.35525e-20)
(0.000158495 0.00274291 -2.03288e-20)
(0.000205629 0.00310737 6.77626e-21)
(0.00057122 0.00288323 -1.35525e-20)
(0.00050278 0.00308298 -3.38813e-21)
(0.00047612 0.000792021 8.47033e-22)
(0.000171293 0.00435565 0)
(0.00022628 0.00488124 -3.38813e-21)
(0.000435981 0.0027298 6.77626e-21)
(0.000326679 0.00372948 -1.69407e-20)
(0.00043314 0.00492855 -1.35525e-20)
(0.000127954 0.00399069 -1.35525e-20)
(0.000560694 0.00502452 2.03288e-20)
(0.000351832 0.00163382 -5.0822e-21)
(0.000227023 0.00363724 0)
(0.000137753 0.00455135 1.35525e-20)
(0.000316983 0.00298819 3.38813e-21)
(0.000146396 0.00457627 -1.69407e-20)
(0.000441572 0.00499257 3.38813e-21)
(0.00040512 0.0048285 -1.35525e-20)
(0.000567051 0.00456273 0)
(0.000429455 0.0024224 -1.69407e-21)
(0.000474037 0.00458848 0)
(0.000441742 0.00381827 -1.01644e-20)
(0.000243042 0.00508929 -5.0822e-21)
(0.000227963 0.00261517 0)
(0.000520436 0.00434246 0)
(0.000471791 0.00337995 1.01644e-20)
(0.000341472 0.0050271 -6.77626e-21)
(0.000320532 0.00418043 3.21873e-20)
(0.000570646 0.00274392 8.47033e-21)
(0.000506174 0.00195415 0)
(0.00044973 0.00438815 -2.87991e-20)
(0.000475807 0.00387874 -6.77626e-21)
(0.000488011 0.00501689 1.35525e-20)
(0.000348423 0.00147613 -8.47033e-22)
(0.000338026 0.00436352 1.35525e-20)
(0.000174481 0.00284289 -1.18585e-20)
(0.000146247 0.00431959 -1.35525e-20)
(0.000162292 0.00435412 0)
(0.00027649 0.0041351 -2.03288e-20)
(0.00039285 0.000842933 0)
(0.000173494 0.00486651 -1.35525e-20)
(0.000208589 0.00183238 -8.47033e-21)
(0.000380345 0.00453808 -1.01644e-20)
(0.00041926 0.00491934 0)
(0.00046531 0.00341293 6.77626e-21)
(0.000172053 0.00330222 -6.77626e-21)
(0.000372469 0.0014167 0)
(0.000492414 0.0035185 -2.71051e-20)
(0.000428344 0.00507075 -1.35525e-20)
(0.000161986 0.00461749 -3.38813e-21)
(0.000312466 0.00503571 0)
(0.000386677 0.00320273 -6.77626e-21)
(0.000421593 0.00344957 -8.47033e-22)
(0.000196495 0.00466383 6.77626e-21)
(0.000532806 0.000765962 0)
(0.000225792 0.0033279 3.38813e-21)
(0.000264404 0.00471147 0)
(0.000307474 0.00457473 1.35525e-20)
(0.000558522 0.00476488 0)
(0.000219227 0.00312658 -6.77626e-21)
(0.000557192 0.00265926 -5.0822e-21)
(0.000181123 0.00358087 -1.01644e-20)
(0.000475197 0.00523144 6.77626e-21)
(0.000220482 0.0030719 6.77626e-21)
(0.000374982 0.00376244 -6.77626e-21)
(0.000147568 0.00269165 0)
(0.000512568 0.00252891 -3.38813e-21)
)


// ************************************************************************* //
