/*--------------------------------*- C++ -*----------------------------------*\
  =========                 |
  \\      /  F ield         | OpenFOAM: The Open Source CFD Toolbox
   \\    /   O peration     | Website:  https://openfoam.org
    \\  /    A nd           | Version:  6
     \\/     M anipulation  |
\*---------------------------------------------------------------------------*/
FoamFile
{
    version     2.0;
    format      ascii;
    class       Cloud<passiveParticle>;
    location    "0.005/lagrangian/sprayCloud";
    object      positions;
}
// * * * * * * * * * * * * * * * * * * * * * * * * * * * * * * * * * * * * * //

531
(
(0.0465681 0.316654 0.16804 0.468738) 2355 4687 1
(0.643017 0.121398 0.174133 0.0614524) 1355 2695 1
(0.0675991 0.485931 0.0178519 0.428618) 1555 3093 2
(0.364986 0.188521 0.3175 0.128994) 2251 4481 2
(0.0930729 0.453461 0.439262 0.0142042) 2252 4483 1
(0.144697 0.427663 0.183847 0.243793) 651 1297 1
(0.341839 0.0370047 0.293114 0.328042) 2151 4281 1
(0.306481 0.347743 0.322695 0.0230803) 3051 6070 2
(0.405384 0.151959 0.149179 0.293479) 2350 4677 1
(0.00554011 0.497199 0.417317 0.0799447) 1250 2290 1
(0.765177 0.122622 0.0945385 0.0176626) 950 1891 2
(0.417827 0.288218 0.284507 0.00944787) 2550 5073 1
(0.345075 0.327462 0.27645 0.0510128) 2550 5076 1
(0.384417 0.31039 0.24749 0.0577024) 1150 2287 2
(0.257668 0.287107 0.353211 0.102013) 750 1491 1
(0.0698492 0.476071 0.215517 0.238563) 1550 3083 2
(0.0509779 0.474499 0.448627 0.0258961) 4729 9213 1
(0.110161 0.205794 0.239154 0.444892) 4629 9014 2
(0.124719 0.197558 0.432742 0.244981) 4527 9007 1
(0.090959 0.464101 0.368061 0.0768785) 4634 9222 2
(0.613869 0.144972 0.193064 0.0480949) 4727 9408 2
(0.853026 0.0467639 0.0279107 0.0722991) 4533 9021 1
(0.259645 0.25032 0.370179 0.119857) 4530 9016 2
(0.531656 0.0158179 0.233718 0.218808) 4326 8607 1
(0.183817 0.18566 0.222446 0.408077) 4530 8817 2
(0.668964 0.154297 0.0150403 0.161699) 4529 9013 1
(0.220829 0.229705 0.383791 0.165676) 4533 9019 1
(0.925014 0.0374763 0.00204654 0.0354635) 4430 8817 1
(0.380857 0.30959 0.103331 0.206223) 4330 8618 1
(0.515586 0.0853239 0.15906 0.24003) 4431 8818 1
(0.388548 0.305736 0.157609 0.148107) 4826 9406 1
(0.183899 0.115867 0.295165 0.405069) 4432 8820 1
(0.397834 0.0630073 0.239697 0.299462) 4433 8822 1
(0.0484561 0.152764 0.471879 0.326901) 4433 8820 1
(0.222171 0.0487893 0.388903 0.340137) 4332 8622 2
(0.0718223 0.454016 0.464053 0.0101092) 4334 8626 2
(0.293303 0.35617 0.102476 0.248052) 4431 8818 2
(0.001674 0.50783 0.170174 0.320322) 4433 8820 2
(0.422135 0.288881 0.0541721 0.234812) 4333 8425 1
(0.0864688 0.34531 0.456773 0.111448) 4334 8626 2
(0.265701 0.374719 0.0798683 0.279712) 4435 8824 2
(0.27893 0.303097 0.360539 0.0574344) 4334 8626 2
(0.0354268 0.482245 0.0350581 0.44727) 4131 8222 1
(0.906716 0.0469932 0.0132095 0.033081) 4338 8633 2
(0.279631 0.360193 0.068936 0.29124) 4337 8632 1
(0.063794 0.478415 0.0803096 0.377481) 4332 8619 2
(0.736395 0.131812 0.0175172 0.114276) 4337 8433 1
(0.0643116 0.110142 0.36065 0.464896) 4234 8426 1
(0.0929232 0.318923 0.134618 0.453536) 4334 8427 2
(0.532731 0.0631518 0.233636 0.170481) 4238 8435 2
(0.330135 0.248243 0.0933322 0.32829) 4235 8428 1
(0.464453 0.207231 0.0660886 0.262228) 4239 8436 1
(0.300547 0.358706 0.022946 0.317801) 4242 8440 2
(0.748583 0.0134334 0.125331 0.112653) 4140 8237 1
(0.200791 0.40835 0.303892 0.0869673) 4134 8227 2
(0.535667 0.084709 0.149774 0.22985) 4138 8235 1
(0.173427 0.313997 0.404703 0.107873) 4140 8237 1
(0.35096 0.207823 0.318833 0.122385) 4140 8237 1
(0.192358 0.405491 0.343757 0.0583939) 4137 8231 2
(0.136321 0.0810954 0.353061 0.429523) 4035 8030 1
(0.075227 0.200606 0.462382 0.261785) 4040 8041 2
(0.195259 0.402373 0.0330626 0.369306) 4039 8039 1
(0.21034 0.405734 0.366289 0.017638) 4033 8026 2
(0.688563 0.117611 0.152417 0.0414092) 4043 8044 1
(0.537928 0.123585 0.227618 0.110869) 4037 8032 1
(0.659765 0.170949 0.0279466 0.14134) 4036 8032 2
(0.205322 0.397519 0.0062881 0.39087) 4041 8042 2
(0.265948 0.367033 0.10615 0.260868) 4035 7832 1
(0.00552253 0.260264 0.243284 0.49093) 4617 9188 1
(0.117685 0.194686 0.441197 0.246433) 4423 8803 2
(0.120544 0.441055 0.0500083 0.388393) 4623 9200 2
(0.00651005 0.5021 0.285981 0.205409) 4624 9200 2
(0.0895898 0.397931 0.455217 0.0572622) 2449 4875 2
(0.638304 0.182782 0.0613079 0.117605) 2046 4072 2
(0.468834 0.26637 0.231939 0.0328565) 2546 5065 2
(0.590271 0.00129148 0.203604 0.204834) 2546 4869 2
(0.205634 0.397213 0.189202 0.207952) 3145 6061 1
(0.157115 0.151168 0.421371 0.270347) 1944 3870 2
(0.593635 0.206708 0.101827 0.0978294) 1846 3672 2
(0.645164 0.11836 0.0614623 0.175013) 2848 5668 1
(0.270288 0.364862 0.203481 0.161369) 3643 7052 1
(0.35357 0.323202 0.271061 0.0521676) 3045 6061 1
(0.115054 0.0903023 0.355174 0.439469) 3443 6852 1
(0.431092 0.256068 0.278915 0.0339249) 2643 5258 1
(0.455681 0.0007364 0.272124 0.271458) 3342 6652 2
(0.0273554 0.452392 0.470693 0.0495594) 3344 6653 1
(0.239979 0.381494 0.337555 0.040973) 3341 6647 2
(0.341578 0.234797 0.101522 0.322103) 3742 7447 1
(0.186936 0.406528 0.173975 0.232561) 3841 7645 1
(0.66398 0.168005 0.159697 0.00831803) 3538 6843 1
(0.204384 0.398156 0.0104307 0.387029) 3741 7445 2
(0.597763 0.206551 0.029251 0.166435) 3736 7433 2
(0.570316 0.215787 0.0321652 0.181732) 2148 4275 2
(0.139535 0.119551 0.430239 0.310674) 3744 7452 2
(0.402111 0.292421 0.298949 0.00651989) 3046 6063 2
(0.314266 0.0825182 0.339774 0.263442) 3147 6261 1
(0.0412693 0.492312 0.401188 0.0652308) 3744 7451 2
(0.0568081 0.152281 0.319322 0.471589) 3841 7446 2
(0.3097 0.345144 0.324166 0.0209902) 3843 7450 1
(0.498377 0.253152 0.180723 0.0677486) 3543 7049 2
(0.435733 0.0967293 0.185407 0.28213) 3643 7052 2
(0.0716985 0.479695 0.0468476 0.401759) 3246 6458 2
(0.568296 0.211267 0.209791 0.0106457) 3944 7847 1
(0.385269 0.151359 0.302779 0.160593) 3744 7449 1
(0.735423 0.0972003 0.0383273 0.129049) 3443 6852 1
(0.137031 0.219836 0.43148 0.211653) 3941 7844 2
(0.346497 0.171546 0.321733 0.160224) 3839 7638 1
(0.361735 0.319135 0.108247 0.210883) 3345 6658 1
(0.119177 0.446075 0.270268 0.16448) 3547 7057 2
(0.183015 0.414761 0.0246248 0.377599) 248 494 2
(0.231671 0.384176 0.291768 0.0923848) 3746 7456 1
(0.0825947 0.458707 0.0246081 0.43409) 3644 7253 1
(0.335286 0.332378 0.264072 0.0682639) 3838 7440 1
(0.181068 0.0943544 0.317818 0.40676) 3939 7839 1
(0.76241 0.108148 0.0145278 0.114914) 3247 6462 1
(0.47506 0.267888 0.105424 0.151628) 3448 6860 2
(0.822896 0.08855 0.0146176 0.0739368) 1945 3872 1
(0.560977 0.214333 0.009669 0.21502) 2749 5471 1
(0.654895 0.178944 0.0149015 0.15126) 1646 3274 2
(0.524314 0.237847 0.182564 0.0552744) 2145 4270 1
(0.173781 0.419025 0.25512 0.152074) 1748 3477 2
(0.0908759 0.459459 0.291245 0.158419) 3640 7242 2
(0.0159562 0.503428 0.295848 0.184768) 3241 6450 2
(0.704905 0.120449 0.0306571 0.143988) 3841 7644 1
(0.274535 0.284879 0.0778519 0.362734) 3047 5866 2
(0.867652 0.066164 0.0551528 0.0110311) 3740 7245 1
(0.172359 0.417828 0.0989924 0.310821) 3143 6255 2
(0.000298058 0.513558 0.0483681 0.437776) 3844 7648 2
(0.184813 0.20941 0.407591 0.198186) 3641 7247 2
(0.333679 0.333161 0.273271 0.0598897) 3343 6654 1
(0.228676 0.277257 0.108411 0.385656) 3245 6260 2
(0.0532425 0.486763 0.389204 0.0707906) 3540 7045 2
(0.0353749 0.230149 0.482307 0.252169) 1747 3478 2
(0.327059 0.336451 0.120807 0.215683) 3738 7241 1
(0.381128 0.288242 0.298153 0.0324773) 3045 6058 1
(0.212439 0.399124 0.265496 0.122941) 2946 5863 2
(0.669194 0.166385 0.0240241 0.140397) 3143 6255 2
(0.172956 0.33048 0.40281 0.0937531) 3540 7043 1
(0.704537 0.147739 0.145623 0.00210069) 3441 6846 2
(0.294744 0.0647727 0.289369 0.351114) 2443 4862 1
(0.0316752 0.496595 0.136734 0.334996) 3345 6655 2
(0.25505 0.250085 0.122461 0.372404) 3441 6650 2
(0.904678 0.0476401 0.00600842 0.0416734) 3043 6057 1
(0.876442 0.0386282 0.0233591 0.0615704) 1645 3076 2
(0.0552662 0.332763 0.151098 0.460873) 3345 6657 1
(0.0316331 0.433146 0.484205 0.0510153) 2046 4073 2
(0.0477149 0.476237 0.00406523 0.471983) 3736 7237 1
(0.0687257 0.465646 0.214344 0.251284) 3542 6851 1
(0.481758 0.0389534 0.220181 0.259107) 2646 5068 2
(0.622956 0.188532 0.0589831 0.129529) 3042 6055 1
(0.63198 0.184566 0.164981 0.0184723) 2149 4275 2
(0.314626 0.275438 0.0730192 0.336917) 2746 5465 1
(0.296851 0.0895206 0.345975 0.267653) 747 1485 1
(0.112124 0.0546164 0.443931 0.389329) 1546 3078 2
(0.818814 0.090572 0.00726314 0.0833509) 2546 4869 1
(0.557442 0.221189 0.049344 0.172026) 3540 6847 1
(0.453416 0.273288 0.075377 0.197919) 3044 5860 1
(0.12675 0.127736 0.436634 0.30888) 2943 5858 2
(0.340797 0.329639 0.121534 0.208029) 1147 2085 1
(0.281182 0.364096 0.223335 0.131388) 3442 6848 2
(0.463836 0.268062 0.0775752 0.190527) 1649 3283 1
(0.257783 0.344328 0.0269472 0.370941) 3537 6841 2
(0.779566 0.0801652 0.030062 0.110207) 3143 6057 2
(0.174789 0.237975 0.404998 0.182238) 1944 3867 1
(0.679199 0.00870356 0.160363 0.151735) 3441 6849 2
(0.195139 0.25866 0.402416 0.143786) 1748 3480 2
(0.511264 0.113525 0.240353 0.134858) 3241 6448 1
(0.0136892 0.493118 0.0457363 0.447457) 3638 7042 1
(0.150651 0.421275 0.00328794 0.424787) 946 1685 2
(0.213069 0.145029 0.387934 0.253968) 3141 6249 1
(0.206766 0.399244 0.0777311 0.316259) 1946 3873 2
(0.404113 0.00179261 0.297887 0.296208) 2248 4472 1
(0.277471 0.0939224 0.267269 0.361338) 845 1484 2
(0.621091 0.0504246 0.187596 0.140889) 3142 6251 1
(0.337986 0.339322 0.130701 0.19199) 3042 6052 2
(0.545585 0.230627 0.121336 0.102452) 1947 3873 2
(0.104773 0.44765 0.365779 0.0817976) 1049 1890 1
(0.0943179 0.0781398 0.452804 0.374738) 3036 6043 2
(0.216384 0.391808 0.190798 0.20101) 1547 2881 1
(0.2128 0.394485 0.372957 0.0197575) 1146 2279 2
(0.128244 0.00554973 0.435199 0.431007) 2044 4066 1
(0.673369 0.163179 0.129792 0.0336599) 1844 3671 1
(0.125234 0.438606 0.377613 0.0585472) 2943 5855 2
(0.232463 0.163721 0.383758 0.220058) 3142 6254 2
(0.0578044 0.471132 0.187396 0.283668) 3044 6059 1
(0.857085 0.071462 0.0425814 0.0288719) 3141 6252 1
(0.684857 0.129931 0.0327006 0.152512) 3137 6243 1
(0.494549 0.252815 0.114715 0.13792) 2643 5261 1
(0.680704 0.163899 0.058822 0.096575) 749 1491 2
(0.417147 0.25932 0.0431886 0.280345) 1145 2279 1
(0.166417 0.416857 0.119651 0.297075) 3435 6638 1
(0.519455 0.246969 0.0435612 0.190014) 1644 3270 2
(0.343299 0.33038 0.105687 0.220634) 2939 5849 2
(0.202108 0.405515 0.201099 0.191278) 2043 4064 2
(0.385708 0.30871 0.269361 0.0362218) 1646 3274 2
(0.855465 0.0740252 0.0426902 0.0278198) 3136 6241 2
(0.350018 0.324902 0.0355997 0.28948) 3042 5856 1
(0.260217 0.0999314 0.26993 0.369922) 3041 5854 2
(0.133326 0.436121 0.309442 0.121111) 2740 5451 2
(0.5839 0.207941 0.0717926 0.136366) 1745 3474 1
(0.0370924 0.011778 0.481578 0.469552) 2239 4454 1
(0.227141 0.221081 0.386428 0.165351) 1744 3472 2
(0.0464258 0.17237 0.311158 0.470047) 3040 6050 1
(0.399008 0.0403806 0.260841 0.299771) 2638 5052 2
(0.13846 0.376691 0.416303 0.0685471) 1247 2480 1
(0.589499 0.20542 0.0881497 0.116932) 1445 2678 1
(0.43832 0.28232 0.0685531 0.210807) 1843 3669 1
(0.55612 0.13335 0.0930585 0.217471) 1844 3670 1
(0.0243127 0.222366 0.273807 0.479514) 1642 3268 1
(0.0190119 0.365804 0.124193 0.490991) 844 1482 2
(0.0982278 0.106042 0.348919 0.446811) 1644 3272 1
(0.0387094 0.484009 0.0814755 0.395806) 1245 2478 2
(0.375485 0.165849 0.312413 0.146254) 246 491 2
(0.267498 0.366117 0.359569 0.00681644) 2341 4660 1
(0.0345588 0.495601 0.148471 0.321369) 1443 2870 2
(0.234816 0.381953 0.039001 0.34423) 1542 2871 1
(0.122778 0.362733 0.427273 0.0872157) 1941 3861 1
(0.296603 0.262367 0.0999716 0.341059) 1541 3067 1
(0.137904 0.438363 0.163887 0.259845) 1241 2470 2
(0.114179 0.442647 0.285519 0.157654) 1640 3265 1
(0.358293 0.316089 0.321275 0.00434333) 1642 3269 2
(0.00854614 0.495617 0.4286 0.0672365) 1442 2871 1
(0.449495 0.27713 0.0460696 0.227305) 1741 3465 2
(0.469778 0.205672 0.265077 0.0594741) 1740 3464 2
(0.155283 0.115116 0.416778 0.312822) 1142 2271 1
(0.122571 0.181613 0.431572 0.264243) 1642 3266 1
(0.807738 0.0999318 0.0837208 0.00860971) 1242 2472 2
(0.606465 0.18009 0.0168462 0.196599) 542 881 2
(0.130375 0.33582 0.0989057 0.434899) 841 1476 2
(0.148536 0.333948 0.0933494 0.424166) 2038 3858 2
(0.192629 0.402799 0.0956519 0.308921) 1438 2863 1
(0.108215 0.283107 0.437014 0.171664) 1838 3656 1
(0.441153 0.283617 0.135025 0.140205) 2138 4253 2
(0.0429123 0.489748 0.353951 0.113389) 2039 4058 2
(0.765468 0.117206 0.0124915 0.104834) 940 1872 1
(0.0488013 0.479609 0.349654 0.121936) 1640 3262 2
(0.094627 0.458345 0.151193 0.295835) 1840 3662 2
(0.449888 0.274592 0.211232 0.0642875) 2533 5042 1
(0.0480174 0.443046 0.458786 0.050151) 1639 3260 1
(0.489522 0.254431 0.109772 0.146276) 1938 3858 1
(0.117911 0.187061 0.434534 0.260495) 1440 2864 1
(0.0843161 0.462823 0.294527 0.158334) 2038 4054 2
(0.522845 0.24222 0.224938 0.00999747) 840 1670 1
(0.842138 0.0432265 0.0790162 0.035619) 2534 5044 2
(0.198373 0.423359 0.270221 0.108047) 639 1272 2
(0.524834 0.24146 0.122027 0.111678) 1838 3656 2
(0.351335 0.145283 0.184207 0.319175) 1438 2862 1
(0.408295 0.146444 0.296175 0.149086) 1639 3263 2
(0.439102 0.100824 0.179885 0.28019) 3331 6431 2
(0.481836 0.258124 0.257036 0.00300435) 3034 6039 1
(0.649045 0.172741 0.166847 0.0113666) 940 1869 1
(0.76555 0.0108302 0.116952 0.106668) 1539 3061 1
(0.584456 0.204774 0.207956 0.00281327) 1337 2662 2
(0.26925 0.365143 0.268475 0.0971321) 1538 2863 1
(0.0216738 0.326664 0.162482 0.48918) 2336 4451 2
(0.485145 0.230983 0.0260829 0.257789) 1237 2264 2
(0.148309 0.426992 0.390257 0.0344417) 2137 4251 2
(0.223737 0.0288733 0.386531 0.360858) 1037 2062 1
(0.687803 0.158643 0.0647947 0.0887593) 1236 2460 2
(0.0805369 0.0326687 0.428435 0.45836) 1535 3055 1
(0.296751 0.35214 0.238825 0.112284) 1936 3655 1
(0.00540662 0.080254 0.497281 0.417058) 1136 2262 2
(0.0156168 0.307004 0.196157 0.481223) 1434 2854 1
(0.251819 0.0850246 0.289407 0.373749) 1435 2658 2
(0.188686 0.406573 0.0171456 0.387596) 2134 4247 2
(0.0205106 0.489455 0.0534791 0.436555) 1536 2859 1
(0.0284955 0.485837 0.338067 0.147601) 1636 3058 1
(0.61368 0.193727 0.125159 0.0674337) 1035 1862 1
(0.751955 0.126897 0.0594243 0.0617236) 935 1859 2
(0.273654 0.234172 0.363204 0.12897) 1635 3255 2
(0.10331 0.448393 0.000379729 0.447918) 1536 2859 1
(0.106911 0.464651 0.0208039 0.407634) 1634 3250 2
(0.118675 0.440723 0.428514 0.0120881) 1535 3056 1
(0.464728 0.27541 0.220279 0.0395822) 1932 3845 2
(0.655287 0.172166 0.00132489 0.171222) 1734 3253 1
(0.0313793 0.484786 0.160501 0.323333) 435 867 1
(0.809431 0.0200397 0.0953989 0.0751308) 1933 3848 2
(0.317902 0.342603 0.0493777 0.290117) 1933 3847 2
(0.0235179 0.0372384 0.450347 0.488897) 2930 5633 2
(0.0258153 0.489109 0.0639428 0.421133) 2232 4442 2
(0.586274 0.213351 0.183823 0.0165515) 1834 3650 2
(0.869407 0.0216568 0.044357 0.0645795) 1634 3252 1
(0.530777 0.235492 0.0279182 0.205813) 1833 3649 1
(0.0706127 0.352402 0.452989 0.123996) 1833 3646 1
(0.403156 0.302791 0.162894 0.131158) 1433 2850 2
(0.118473 0.33466 0.106559 0.440308) 1133 2057 2
(0.752079 0.104419 0.124985 0.0185165) 1833 3649 2
(0.512921 0.243461 0.100683 0.142935) 2232 4443 1
(0.595939 0.0312289 0.202336 0.170496) 2231 4441 2
(0.0214104 0.0447905 0.444603 0.489196) 2331 4441 2
(0.553532 0.0923325 0.134312 0.219824) 1732 3447 1
(0.504351 0.255085 0.201274 0.03929) 1432 2850 2
(0.0485715 0.384564 0.475682 0.0911832) 1332 2652 2
(0.831055 0.00543817 0.0792195 0.0842869) 1732 3249 2
(0.195052 0.40366 0.371167 0.0301206) 1732 3445 2
(0.382785 0.308565 0.00189188 0.306758) 1831 3645 1
(0.150343 0.296045 0.41003 0.143582) 932 1853 1
(0.163603 0.418324 0.041805 0.376269) 532 861 1
(0.363117 0.319954 0.28762 0.0293083) 1731 3443 2
(0.184546 0.30169 0.105895 0.407869) 1431 2650 2
(0.70778 0.0924795 0.142957 0.0567832) 1731 3443 1
(0.158378 0.421099 0.267592 0.152931) 2130 4240 1
(0.337155 0.331319 0.292694 0.0388317) 831 1655 1
(0.352809 0.325312 0.194045 0.127834) 2828 5626 2
(0.794932 0.102463 0.0484496 0.0541556) 1930 3842 1
(0.798267 0.101329 0.0873177 0.0130866) 1830 3640 2
(0.798081 0.101056 0.0982159 0.00264694) 1430 2844 2
(0.850006 0.000141405 0.0750984 0.0747542) 830 1454 2
(0.416633 0.294335 0.231479 0.0575531) 1530 3043 2
(0.504162 0.0171274 0.247803 0.230907) 2129 4238 2
(0.0380285 0.486611 0.315625 0.159736) 1430 2844 2
(0.418484 0.0542133 0.236555 0.290747) 1929 3641 2
(0.057454 0.215617 0.470949 0.25598) 1429 2845 2
(0.650806 0.0644412 0.174593 0.11016) 1629 3243 2
(0.596699 0.166675 0.196803 0.0398223) 2029 4036 1
(0.283578 0.358163 0.114085 0.244175) 1129 2248 1
(0.0540337 0.472984 0.276708 0.196274) 929 1651 1
(0.262903 0.368365 0.236601 0.132131) 329 457 1
(0.0878943 0.272052 0.190587 0.449467) 2627 5228 1
(0.438409 0.281133 0.16785 0.112607) 1628 3042 1
(0.327637 0.253079 0.0831021 0.336182) 3126 6023 2
(0.0354449 0.482179 0.00112532 0.481251) 528 853 1
(0.0011731 0.171169 0.499368 0.328289) 1627 3239 2
(0.170317 0.25834 0.178075 0.393268) 527 1049 1
(0.983693 3.46056e-05 0.00839602 0.00787653) 2926 5823 1
(0.122965 0.438561 0.296873 0.141602) 1827 3637 1
(0.365509 0.0149416 0.302346 0.317203) 2426 4630 2
(0.123246 0.449491 0.183656 0.243607) 1127 2241 2
(0.124784 0.419238 0.421495 0.0344835) 1227 2440 1
(0.0827572 0.314839 0.155093 0.447311) 3325 6617 1
(0.0718248 0.464122 0.257615 0.206438) 2826 5625 1
(0.430383 0.130428 0.28488 0.154309) 1626 3237 2
(0.431067 0.0432516 0.242016 0.283665) 226 252 2
(0.212203 0.382039 0.0119104 0.393847) 2026 3834 2
(0.587996 0.20658 0.182212 0.0232119) 2226 4428 2
(0.0583926 0.120427 0.466479 0.354702) 1326 2637 1
(0.356032 0.115553 0.206087 0.322328) 2425 4628 2
(0.414837 0.148509 0.149322 0.287331) 1825 3632 1
(0.651593 0.174223 0.111075 0.0631086) 1425 2837 1
(0.751504 0.125492 0.106555 0.0164496) 725 1441 2
(0.0813492 0.459282 0.404594 0.0547745) 2925 5822 1
(0.455743 0.273091 0.226749 0.0444175) 2724 5419 2
(0.641129 0.0250176 0.179478 0.154375) 2624 5223 2
(0.677822 0.162566 0.0620849 0.0975267) 2720 5413 2
(0.653411 0.0894537 0.173336 0.0837996) 2622 5219 2
(0.0181018 0.491042 0.343023 0.147832) 2124 4228 1
(0.357155 0.141082 0.180154 0.321608) 2522 4821 2
(0.462966 0.275447 0.160706 0.100881) 1624 3232 2
(0.541308 0.229439 0.120662 0.10859) 2123 4027 1
(0.0468624 0.204681 0.286624 0.461833) 624 1242 1
(0.621263 0.196974 0.1648 0.016963) 1524 3033 2
(0.638173 0.070711 0.178398 0.112718) 1324 2633 1
(0.647609 0.143953 0.0377343 0.170704) 1623 3230 1
(0.348275 0.139796 0.185981 0.325948) 524 845 2
(0.64007 0.180101 0.0199963 0.159833) 824 1641 1
(0.350265 0.195238 0.316212 0.138286) 1024 2036 1
(0.130688 0.434568 0.34329 0.0914539) 424 646 1
(0.0423749 0.364189 0.478644 0.114792) 2320 4618 2
(0.219606 0.339316 0.0506867 0.390392) 1223 2236 2
(0.092885 0.35831 0.45366 0.095145) 1023 2037 2
(0.469565 0.137198 0.264904 0.128334) 423 843 2
(0.591096 0.208399 0.106829 0.0936761) 1223 2432 2
(0.194461 0.402735 0.402671 0.00013336) 1921 3625 1
(0.27151 0.151013 0.355744 0.221734) 823 1636 1
(0.266953 0.252265 0.366566 0.114216) 2020 4021 2
(0.166774 0.416611 0.0298161 0.386798) 523 843 1
(0.164761 0.232711 0.184919 0.417609) 1721 3227 2
(0.0515266 0.475024 0.440533 0.0329161) 2120 4217 2
(0.168861 0.246735 0.414831 0.169573) 122 244 2
(0.806021 0.0754682 0.0920897 0.0264209) 722 1435 1
(0.761323 0.0512484 0.115795 0.0716339) 622 1236 1
(0.118592 0.064711 0.375891 0.440805) 1021 1834 2
(0.0794514 0.426179 0.460183 0.0341857) 1919 3820 2
(0.239339 0.387101 0.186493 0.187068) 1421 2826 2
(0.0264625 0.486752 0.417003 0.0697823) 821 1436 1
(0.381871 0.0248982 0.287465 0.305766) 321 639 1
(0.0569988 0.35253 0.119096 0.471375) 421 640 2
(0.632061 0.174438 0.0157471 0.177753) 1320 2627 1
(0.268025 0.366165 0.329595 0.0362144) 1420 2628 1
(0.208958 0.32446 0.0709801 0.395601) 1320 2429 2
(0.21063 0.410088 0.225444 0.153838) 521 1035 2
(0.0681993 0.465858 0.260256 0.205687) 2017 3816 1
(0.436426 0.286242 0.052936 0.224396) 620 1234 2
(0.382201 0.0708053 0.308966 0.238028) 420 837 2
(0.00591542 0.497137 0.454478 0.0424704) 1519 2825 1
(0.0475041 0.157703 0.318551 0.476242) 1718 3221 2
(0.52073 0.246496 0.0830211 0.149753) 1519 3021 2
(0.924733 0.0393999 0.0338269 0.00204055) 1019 2028 2
(0.0682792 0.000701374 0.465905 0.465115) 1319 2623 1
(0.0539672 0.340971 0.458311 0.146751) 1119 2225 1
(0.866581 0.00331522 0.0637429 0.0663612) 719 1431 1
(0.0619103 0.481727 0.207462 0.2489) 818 1628 2
(0.325342 0.338517 0.30821 0.0279315) 1219 2424 2
(0.427233 0.286391 0.227573 0.0588035) 519 835 1
(0.46097 0.269589 0.214203 0.0552381) 719 1432 1
(0.18201 0.408799 0.297699 0.111492) 1018 1828 1
(0.0630617 0.468466 0.306786 0.161686) 1716 3217 1
(0.0130619 0.507608 0.310378 0.168952) 619 1230 2
(0.482974 0.258688 0.161077 0.0972603) 1317 2423 1
(0.317311 0.00604516 0.341193 0.335451) 1118 2223 1
(0.02895 0.479947 0.463659 0.0274439) 1018 2024 1
(0.240068 0.379922 0.0196432 0.360367) 618 1032 1
(0.14144 0.457317 0.23361 0.167633) 318 631 2
(0.226198 0.0124685 0.386847 0.374486) 717 1428 2
(0.505966 0.247038 0.24182 0.00517584) 1117 2224 1
(2.06982e-05 0.151489 0.3543 0.494191) 1216 2420 1
(0.528543 0.102773 0.13296 0.235725) 417 632 2
(0.212468 0.169249 0.384246 0.234037) 817 1624 1
(0.049646 0.475171 0.1216 0.353583) 517 831 1
(0.104444 0.456827 0.00611879 0.43261) 1414 2814 1
(0.198339 0.288106 0.112639 0.400916) 716 1227 2
(0.286345 0.0819021 0.352406 0.279347) 816 1622 1
(0.358029 0.159391 0.315251 0.167329) 1713 3407 1
(0.0830221 0.460199 0.411159 0.0456196) 1813 3606 2
(0.0162378 0.0037984 0.488422 0.491542) 815 1424 2
(0.11607 0.0336006 0.413924 0.436405) 215 428 1
(0.0505412 0.476686 0.457524 0.0152492) 915 1819 2
(0.627173 0.100944 0.0955698 0.176313) 415 826 1
(0.537884 0.0311639 0.230653 0.200299) 914 1820 2
(0.851954 0.0763687 0.0394685 0.0322083) 715 1421 2
(0.311608 0.344124 0.148948 0.195319) 1812 3408 1
(0.346297 0.299802 0.326826 0.0270752) 914 1820 2
(0.183449 0.0711686 0.408309 0.337073) 914 1820 2
(0.426877 0.286507 0.178664 0.107952) 1712 3209 1
(0.0832742 0.095565 0.458147 0.363013) 1611 3207 2
(0.341803 0.329112 0.0864721 0.242613) 714 1223 1
(0.476925 0.183051 0.254121 0.0859035) 1113 2213 1
(0.654253 0.0752761 0.172884 0.0975874) 1113 2216 2
(0.212642 0.39363 0.121274 0.272454) 214 427 1
(0.124611 0.191974 0.437871 0.245544) 1013 2017 2
(0.271042 0.0744594 0.361821 0.292677) 1711 3403 1
(0.534991 0.195662 0.232644 0.0367036) 913 1818 2
(0.559756 0.220062 0.0173033 0.202879) 1711 3207 1
(0.414344 0.302641 0.0472846 0.235731) 1213 2412 2
(0.219032 0.405425 0.0225366 0.353007) 1612 3206 2
(0.557301 0.224444 0.00438566 0.21387) 1412 2810 1
(0.170172 0.432253 0.29356 0.104016) 313 621 2
(0.0679134 0.373003 0.450318 0.108766) 1511 3005 1
(0.0394226 0.270184 0.210213 0.48018) 612 1020 2
(0.0674762 0.0898544 0.461902 0.380768) 912 1813 1
(0.576707 0.211651 0.137474 0.0741675) 412 622 1
(0.307051 0.347827 0.0296487 0.315473) 1511 3007 2
(0.477353 0.0165868 0.261377 0.244683) 1211 2411 2
(0.573185 0.0585354 0.157353 0.210926) 1609 3202 1
(0.368082 0.321214 0.107496 0.203208) 1011 2012 2
(0.042685 0.13219 0.359692 0.465434) 411 818 1
(0.39273 0.324739 0.253349 0.0291812) 611 1216 2
(0.373251 0.325113 0.0939366 0.2077) 411 818 2
(0.375541 0.312041 0.169779 0.142639) 1410 2807 1
(0.000672181 0.505918 0.344914 0.148495) 1610 3202 2
(0.265259 0.383814 0.0215583 0.329369) 1011 2010 2
(0.0188907 0.513255 0.107535 0.360319) 811 1612 2
(0.00179254 0.133453 0.365718 0.499036) 810 1414 2
(0.351758 0.00503464 0.324116 0.319092) 410 817 2
(0.480052 0.0797866 0.259975 0.180186) 410 817 2
(0.306463 0.346791 0.226961 0.119785) 1210 2210 1
(0.197501 0.401255 0.106143 0.295101) 610 1215 1
(0.139808 0.438555 0.218438 0.203199) 1209 2404 2
(0.50397 0.170455 0.0831994 0.242375) 1408 2802 1
(0.12968 0.464686 0.236136 0.169499) 409 814 2
(0.557926 0.155847 0.21306 0.0731673) 909 1807 1
(0.500795 0.162616 0.249602 0.086986) 309 616 2
(0.489899 0.254996 0.00359437 0.25151) 1508 2803 1
(0.0608552 0.12519 0.352156 0.461799) 708 1409 1
(0.0726695 0.361064 0.463667 0.1026) 808 1609 2
(0.246431 0.386348 0.152757 0.214464) 808 1608 2
(0.294295 0.0774366 0.352821 0.275447) 808 1609 2
(0.494168 0.0690088 0.183907 0.252916) 208 216 2
(0.78086 0.0973794 0.109593 0.0121673) 1207 2403 2
(0.361438 0.323709 0.125164 0.189688) 1407 2800 2
(0.27137 0.052876 0.361029 0.314724) 708 1407 1
(0.301016 0.349339 0.191749 0.157896) 1007 2005 1
(0.533062 0.104123 0.230031 0.132784) 1407 2798 1
(0.231247 0.394178 0.204042 0.170533) 1106 2201 2
(0.0999306 0.455171 0.314199 0.1307) 1705 3391 2
(0.683958 0.158021 0.0757697 0.0822515) 407 811 1
(0.37935 0.320979 0.0870503 0.21262) 1007 2002 2
(0.135493 0.0463542 0.385894 0.432258) 1306 2401 2
(0.282897 0.288278 0.0863079 0.342517) 806 1604 1
(0.131185 0.448728 0.372242 0.0478452) 1305 2597 2
(0.345293 0.33946 0.263332 0.051915) 1505 2995 2
(0.224682 0.306524 0.387714 0.0810788) 1405 2797 2
(0.125229 0.42435 0.0130379 0.437383) 1306 2401 2
(0.152116 0.423942 0.141918 0.282024) 606 1207 1
(0.327481 0.348609 0.321022 0.00288716) 1305 2597 2
(0.0203865 0.489805 0.488931 0.000876878) 1006 2003 1
(0.204708 0.131126 0.397625 0.266541) 1405 2797 2
(0.214135 0.409435 0.00908731 0.367343) 705 1403 1
(0.80331 0.100303 0.0424933 0.0538939) 1205 2398 2
(0.598538 0.0727658 0.200571 0.128125) 905 1802 2
(0.698527 0.13545 0.0197978 0.146226) 1405 2796 1
(0.184533 0.407695 0.139498 0.268274) 1105 2200 1
(0.318648 0.322783 0.340674 0.0178953) 705 1404 2
(0.680791 0.0628234 0.154369 0.102016) 505 1003 1
(0.249482 0.323473 0.362794 0.0642503) 1205 2396 1
(0.14931 0.425405 0.0825418 0.342743) 1105 2001 1
(0.429558 0.144826 0.285146 0.14047) 1503 2992 2
(0.358379 0.32537 0.036479 0.279772) 404 804 2
(0.788568 0.10792 0.0537453 0.0497659) 1204 2394 2
(0.289013 0.355494 0.161436 0.194057) 804 1402 1
(0.243488 0.387963 0.13612 0.232429) 1204 2394 2
(0.248069 0.390096 0.339687 0.0221488) 1203 2394 2
(0.194391 0.136297 0.272204 0.397108) 1103 2195 1
(0.0866213 0.547275 0.362343 0.00376081) 203 404 2
(0.305786 0.347104 0.217592 0.129518) 1403 2594 1
(0.485364 0.203165 0.0541527 0.257318) 503 803 2
(0.0757285 0.462145 0.273184 0.188943) 1303 2395 1
(0.0905098 0.462353 0.21393 0.233207) 1402 2790 2
(0.349934 0.0657388 0.321746 0.262581) 903 1795 1
(0.00200604 0.523971 0.0244877 0.449535) 903 1795 2
(0.0538816 0.475695 0.0210825 0.449341) 402 800 2
(0.106626 0.0608252 0.385862 0.446687) 1002 1796 2
(0.72903 0.0635563 0.0740358 0.133378) 1402 2790 1
(0.35713 0.321441 0.101809 0.219621) 1302 2393 1
(0.166946 0.218596 0.416393 0.198065) 1401 2789 2
(0.296378 0.351811 0.0451823 0.306629) 902 1597 1
(0.168779 0.0609734 0.412562 0.357686) 902 1793 1
(0.34234 0.33523 0.167616 0.154814) 1301 2589 2
(0.311171 0.350098 0.0227342 0.315997) 201 400 2
(0.781136 0.107902 0.00692553 0.104037) 901 1793 1
(0.853216 0.0745523 0.0418557 0.0303756) 1301 2587 2
(0.145079 0.427454 0.228225 0.199242) 1301 2391 1
(0.689751 0.0452738 0.153515 0.11146) 1301 2587 1
(0.0523425 0.0401644 0.471597 0.435896) 801 1592 1
(0.246 0.281997 0.359375 0.112628) 701 1393 1
(0.251048 0.379604 0.102544 0.266805) 1000 1990 2
(0.0954605 0.00572014 0.452267 0.446553) 1400 2787 2
(0.454663 0.0302252 0.272668 0.242443) 800 1593 2
(0.501679 0.103844 0.249161 0.145316) 1000 1991 2
(0.632665 0.183668 0.112111 0.0715567) 700 1394 1
(0.441139 0.27943 0.0828061 0.196624) 700 1195 1
)


// ************************************************************************* //
