/*--------------------------------*- C++ -*----------------------------------*\
  =========                 |
  \\      /  F ield         | OpenFOAM: The Open Source CFD Toolbox
   \\    /   O peration     | Website:  https://openfoam.org
    \\  /    A nd           | Version:  6
     \\/     M anipulation  |
\*---------------------------------------------------------------------------*/
FoamFile
{
    version     2.0;
    format      ascii;
    class       scalarField;
    location    "0.005/lagrangian/sprayCloud";
    object      rho;
}
// * * * * * * * * * * * * * * * * * * * * * * * * * * * * * * * * * * * * * //


531
(
794.61
794.215
773.878
780.811
772.713
783.055
772.778
777.954
778.412
786.802
771.143
784.782
784.087
775.948
768.158
779.19
784.424
779.722
755.921
793.958
784.709
789.536
783.859
734.329
777.428
774.686
788.667
773.235
760.994
776.426
783.629
775.892
785.934
782.202
772.333
781.003
770.358
778.208
773.426
775.377
783.016
780.86
734.383
790.808
784.678
764.85
788.01
765.761
766.932
787.674
770.727
792.182
787.969
791.04
740.634
784.628
787.997
786.529
771.386
734.354
787.648
784.809
734.369
789.613
773.813
750.879
791.081
734.354
776.747
734.327
757.62
758.4
796.175
794.234
794.401
794.804
793.205
752.018
789.934
795.119
792.721
790.09
791.94
733.942
775.451
788.588
736.939
791.708
789.273
734.307
780.929
734.354
788.117
788.697
789.687
789.386
790.362
783.724
789.631
785.698
788.413
788.615
788.947
788.154
785.369
787.484
773.587
788.81
786.724
759.122
785.89
788.738
747.276
786.814
786.67
784.22
773.77
784.33
783.95
776.91
787.772
759.024
740.503
787.631
785.827
780.459
779.403
786.164
783.887
784.166
784.859
746.215
785.132
734.315
785.367
784.123
776.894
746.875
752.114
733.882
782.054
750.208
765.461
754.221
777.591
782.036
734.354
775.444
780.126
736.296
774.396
779.157
765.98
775.253
777.544
742.658
771.087
753.996
773.385
757.872
769.024
734.344
765.377
734.206
750.331
769.139
740.503
734.311
733.47
735.602
771.355
763.64
733.896
741.065
736.296
767.431
760.372
734.372
764.186
735.17
734.192
734.214
736.249
741.427
754.225
735.602
734.355
733.942
749.028
733.923
734.361
734.232
734.198
733.947
741.392
734.37
736.296
733.098
733.907
737.937
734.174
734.221
734.068
734.274
739.033
733.96
734.051
734.214
734.109
734.773
734.232
733.935
734.509
734.039
734.264
734.123
733.744
733.597
733.669
734.042
734.109
734.132
733.622
734.056
734.068
734.109
734.117
734.313
733.94
734.253
734.205
734.245
734.257
734.162
734.165
734.042
734.095
734.376
734.041
734.248
733.978
734.253
734.173
734.365
734.185
734.245
734.205
734.041
734.398
734.349
734.165
733.912
734.271
734.217
734.089
734.275
733.972
734.261
734.498
734.406
734.246
734.518
733.887
734.402
734.39
734.415
734.51
734.399
734.395
734.401
734.524
733.983
734.406
734.382
734.174
734.405
734.228
734.228
734.287
734.397
734.277
733.983
734.119
734.119
734.021
734.227
734.119
734.397
734.836
735.196
734.365
734.385
734.392
734.365
734.365
734.384
734.432
734.357
734.349
734.26
734.349
734.319
734.007
734.454
734.327
734.342
734.256
734.191
734.289
734.369
734.256
734.385
734.472
734.464
734.374
734.326
734.058
747.337
734.412
734.486
734.404
734.514
734.471
734.548
734.392
734.416
734.39
734.989
734.976
734.397
734.39
734.383
734.418
734.452
734.409
734.15
734.395
734.435
734.416
758.914
734.274
734.336
734.316
734.355
733.927
734.234
734.116
734.358
734.372
734.278
734.369
734.37
734.387
758.362
734.314
734.357
779.726
734.329
734.417
734.451
771.783
734.417
734.339
737.703
734.313
779.995
734.378
734.314
734.303
769.145
779.708
734.469
734.36
734.342
765.165
786.55
786.475
734.314
734.305
734.314
781.886
733.981
782.915
786.661
734.198
734.309
734.198
734.271
734.008
734.223
770.121
734.809
734.138
786.299
779.089
734.965
734.308
786.268
734.114
749.069
767.318
778.342
791.573
784.114
774.677
750.36
789.412
780.678
789.104
734.349
781.803
784.687
734.538
734.723
788.106
788.431
777.994
789.398
778.806
787.781
734.371
785.433
786.007
734.36
734.338
791.68
765.352
777.363
792.663
785.241
734.337
786.671
734.337
763.636
734.297
734.436
788.635
734.338
789.243
789.714
784.575
734.338
746.424
734.201
786.365
781.741
791.502
785.548
734.273
734.301
786.34
791.033
788.486
772.149
784.548
768.166
786.86
734.002
734.441
786.19
791.385
788.415
734.361
792.167
786.837
788.899
787.593
787.679
771.607
734.355
787.358
791.741
734.355
788.349
734.261
787.929
786.445
775.924
790.69
734.394
734.373
734.389
781.412
787.373
734.394
790.612
734.389
789.537
781.828
793.751
741.038
788.783
786.566
794.063
784.064
786.726
734.249
787.708
784.975
794.452
785.644
785.873
788.99
785.845
734.259
789.909
780.533
734.263
787.669
788.781
786.521
786.224
734.263
781.818
734.284
785.819
788.398
778.46
786.322
786.091
784.933
785.036
785.196
786.819
786.92
788.652
784.356
786.138
786.696
785.706
785.591
)


// ************************************************************************* //
