/*--------------------------------*- C++ -*----------------------------------*\
  =========                 |
  \\      /  F ield         | OpenFOAM: The Open Source CFD Toolbox
   \\    /   O peration     | Website:  https://openfoam.org
    \\  /    A nd           | Version:  6
     \\/     M anipulation  |
\*---------------------------------------------------------------------------*/
FoamFile
{
    version     2.0;
    format      ascii;
    class       scalarField;
    location    "0.005/lagrangian/sprayCloud";
    object      sigma;
}
// * * * * * * * * * * * * * * * * * * * * * * * * * * * * * * * * * * * * * //


531
(
0.0227484
0.0227133
0.0209012
0.0215193
0.0207973
0.0217193
0.0208031
0.0212645
0.0213053
0.0220533
0.0206575
0.0218733
0.0218113
0.0210857
0.0203916
0.0213748
0.0218413
0.0214221
0.0193041
0.0226904
0.0218667
0.0222967
0.021791
0.0174028
0.0212176
0.0209732
0.0222194
0.0208438
0.0197543
0.0211283
0.0217705
0.0210807
0.0219759
0.0216433
0.0207635
0.0215364
0.0205876
0.0212872
0.0208609
0.0210348
0.0217158
0.0215236
0.0174075
0.02241
0.0218639
0.0200972
0.0221608
0.0201783
0.0202824
0.0221309
0.0206204
0.0225323
0.0221572
0.0224307
0.0179549
0.0218595
0.0221597
0.0220289
0.0206791
0.017405
0.0221286
0.0218757
0.0174063
0.0223036
0.0208954
0.0188577
0.0224343
0.017405
0.0211569
0.0174026
0.0194548
0.019524
0.0228875
0.0227149
0.0227297
0.0227657
0.0226233
0.0189584
0.0223322
0.0227936
0.0225803
0.0223461
0.0225108
0.017369
0.0210414
0.0222124
0.0176309
0.0224901
0.0222734
0.0174008
0.0215298
0.017405
0.0221704
0.022222
0.0223102
0.0222834
0.0223704
0.0217789
0.0223052
0.0219548
0.0221968
0.0222148
0.0222443
0.0221737
0.0219255
0.0221141
0.0208752
0.0222321
0.0220463
0.0195881
0.021972
0.0222257
0.0185395
0.0220543
0.0220415
0.0218231
0.0208915
0.0218329
0.0217991
0.0211714
0.0221397
0.0195794
0.0179434
0.0221271
0.0219664
0.0214879
0.0213937
0.0219964
0.0217934
0.0218183
0.0218801
0.018446
0.0219044
0.0174016
0.0219254
0.0218145
0.0211701
0.0185041
0.0189669
0.0173637
0.0216301
0.0187984
0.0201516
0.0191535
0.0212322
0.0216284
0.017405
0.0210408
0.0214582
0.0175747
0.0209473
0.0213718
0.0201977
0.0210238
0.021228
0.0181328
0.0206525
0.0191335
0.0208572
0.0194772
0.0204687
0.0174041
0.020144
0.0173921
0.0188093
0.020479
0.0179434
0.0174012
0.0173278
0.0175141
0.0206764
0.0199896
0.017365
0.0179927
0.0175747
0.0203269
0.0196991
0.0174065
0.0200381
0.0174763
0.0173909
0.0173927
0.0175706
0.0180245
0.0191539
0.0175141
0.0174051
0.017369
0.0186941
0.0173674
0.0174056
0.0173943
0.0173914
0.0173694
0.0180214
0.0174064
0.0175747
0.0172954
0.0173659
0.0177184
0.0173893
0.0173934
0.01738
0.017398
0.0178144
0.0173706
0.0173785
0.0173927
0.0173835
0.0174416
0.0173943
0.0173684
0.0174185
0.0173775
0.0173971
0.0173848
0.0173517
0.0173389
0.0173452
0.0173777
0.0173835
0.0173856
0.0173411
0.0173789
0.01738
0.0173835
0.0173843
0.0174014
0.0173688
0.0173962
0.0173919
0.0173954
0.0173965
0.0173882
0.0173884
0.0173777
0.0173823
0.0174069
0.0173776
0.0173957
0.0173721
0.0173962
0.0173892
0.017406
0.0173902
0.0173954
0.0173919
0.0173776
0.0174088
0.0174045
0.0173884
0.0173664
0.0173978
0.017393
0.0173818
0.0173981
0.0173716
0.0173969
0.0174175
0.0174095
0.0173955
0.0174193
0.0173642
0.0174092
0.0174081
0.0174103
0.0174186
0.0174089
0.0174086
0.0174091
0.0174198
0.0173725
0.0174095
0.0174074
0.0173892
0.0174094
0.017394
0.017394
0.0173991
0.0174087
0.0173983
0.0173725
0.0173845
0.0173845
0.0173759
0.0173939
0.0173845
0.0174087
0.0174471
0.0174785
0.0174059
0.0174077
0.0174083
0.0174059
0.0174059
0.0174076
0.0174118
0.0174052
0.0174045
0.0173968
0.0174045
0.0174019
0.0173747
0.0174137
0.0174026
0.017404
0.0173964
0.0173908
0.0173993
0.0174063
0.0173964
0.0174077
0.0174153
0.0174146
0.0174067
0.0174026
0.0173791
0.0185448
0.0174101
0.0174165
0.0174093
0.0174189
0.0174152
0.0174219
0.0174083
0.0174104
0.0174081
0.0174604
0.0174593
0.0174087
0.0174081
0.0174075
0.0174105
0.0174135
0.0174097
0.0173871
0.0174086
0.017412
0.0174104
0.0195696
0.017398
0.0174034
0.0174017
0.017405
0.0173677
0.0173945
0.0173842
0.0174053
0.0174066
0.0173984
0.0174062
0.0174064
0.0174079
0.0195206
0.0174015
0.0174052
0.0214225
0.0174028
0.0174105
0.0174134
0.0207145
0.0174105
0.0174037
0.0176979
0.0174014
0.0214465
0.017407
0.0174015
0.0174005
0.0204795
0.0214209
0.017415
0.0174055
0.0174039
0.0201252
0.0220308
0.0220241
0.0174015
0.0174007
0.0174015
0.0216151
0.0173724
0.0217068
0.0220407
0.0173914
0.017401
0.0173914
0.0173977
0.0173748
0.0173936
0.0205664
0.0174447
0.0173861
0.0220085
0.0213657
0.0174584
0.017401
0.0220057
0.017384
0.0186978
0.0203168
0.0212992
0.0224781
0.0218137
0.0209724
0.0188118
0.0222857
0.0215074
0.0222583
0.0174045
0.0216077
0.0218648
0.017421
0.0174372
0.0221694
0.0221984
0.0212681
0.0222845
0.0213405
0.0221404
0.0174065
0.0219312
0.0219824
0.0174055
0.0174036
0.0224876
0.0201418
0.0212119
0.0225752
0.0219141
0.0174034
0.0220416
0.0174034
0.0199892
0.0174
0.0174121
0.0222166
0.0174036
0.0222707
0.0223127
0.0218548
0.0174036
0.0184643
0.0173916
0.0220143
0.0216022
0.0224718
0.0219415
0.0173979
0.0174003
0.0220121
0.02243
0.0222032
0.0207471
0.0218524
0.0203923
0.0220584
0.0173742
0.0174126
0.0219987
0.0224614
0.022197
0.0174056
0.022531
0.0220564
0.0222401
0.0221237
0.0221314
0.0206988
0.0174051
0.0221028
0.0224931
0.0174051
0.022191
0.0173969
0.0221537
0.0220214
0.0210836
0.0223996
0.0174085
0.0174066
0.0174081
0.0215728
0.0221041
0.0174085
0.0223926
0.0174081
0.0222969
0.0216099
0.0226719
0.0179904
0.0222297
0.0220322
0.0226997
0.0218092
0.0220465
0.0173958
0.022134
0.0218905
0.0227343
0.0219501
0.0219704
0.0222482
0.021968
0.0173967
0.02233
0.0214945
0.017397
0.0221305
0.0222295
0.0220282
0.0220017
0.017397
0.0216091
0.0173988
0.0219657
0.0221954
0.0213096
0.0220105
0.0219899
0.0218867
0.0218959
0.0219101
0.0220548
0.0220638
0.0222181
0.0218353
0.0219941
0.0220438
0.0219556
0.0219454
)


// ************************************************************************* //
