/*--------------------------------*- C++ -*----------------------------------*\
  =========                 |
  \\      /  F ield         | OpenFOAM: The Open Source CFD Toolbox
   \\    /   O peration     | Website:  https://openfoam.org
    \\  /    A nd           | Version:  6
     \\/     M anipulation  |
\*---------------------------------------------------------------------------*/
FoamFile
{
    version     2.0;
    format      ascii;
    class       scalarField;
    location    "0.005/lagrangian/sprayCloud";
    object      T;
}
// * * * * * * * * * * * * * * * * * * * * * * * * * * * * * * * * * * * * * //


531
(
290.198
290.631
312.365
305.081
313.576
302.696
313.509
308.099
307.617
298.683
315.202
300.851
301.595
310.204
318.276
306.795
301.234
306.234
330.622
290.913
300.929
295.731
301.838
351.407
308.652
311.522
296.671
313.034
325.554
309.703
302.084
310.262
299.616
303.604
313.97
304.877
316.012
307.831
312.835
310.801
302.738
305.029
351.356
294.351
300.963
321.653
297.381
320.726
319.531
297.744
315.632
292.855
297.425
294.098
345.47
301.016
297.395
298.977
314.951
351.383
297.772
300.822
351.369
295.648
312.432
335.59
294.054
351.383
309.367
351.409
328.932
328.154
288.478
290.61
290.428
289.985
291.738
334.474
295.3
289.64
292.266
295.13
293.118
351.768
310.723
296.756
348.963
293.372
296.016
351.427
304.956
351.383
297.265
296.639
295.567
295.893
294.834
301.982
295.628
299.87
296.946
296.727
296.368
297.225
300.222
297.948
312.668
296.516
298.766
327.431
299.663
296.594
339.098
298.67
298.825
301.453
312.478
301.335
301.741
309.196
297.637
327.53
345.594
297.79
299.73
305.454
306.571
299.369
301.809
301.51
300.768
340.123
300.476
351.42
300.224
301.556
309.212
339.486
334.38
351.824
303.762
336.246
321.031
332.305
308.48
303.781
351.383
310.731
305.807
349.566
311.825
306.83
320.503
310.93
308.529
343.54
315.26
332.527
312.878
328.681
317.387
351.393
321.118
351.521
336.126
317.268
345.594
351.424
352.207
350.216
314.983
322.882
351.811
345.06
349.566
319.02
326.179
351.367
322.328
350.621
351.534
351.514
349.611
344.716
332.301
350.216
351.382
351.768
337.397
351.785
351.377
351.497
351.529
351.763
344.749
351.368
349.566
352.553
351.8
348.022
351.551
351.507
351.65
351.458
346.988
351.751
351.666
351.514
351.612
350.992
351.497
351.774
351.238
351.677
351.467
351.599
351.952
352.088
352.022
351.675
351.612
351.59
352.066
351.661
351.65
351.612
351.605
351.421
351.769
351.477
351.522
351.485
351.474
351.563
351.56
351.675
351.625
351.363
351.675
351.482
351.734
351.477
351.552
351.373
351.541
351.485
351.522
351.675
351.342
351.388
351.56
351.795
351.46
351.511
351.631
351.457
351.739
351.47
351.249
351.335
351.484
351.23
351.818
351.338
351.35
351.326
351.238
351.341
351.345
351.339
351.225
351.73
351.335
351.357
351.551
351.335
351.501
351.501
351.446
351.344
351.455
351.73
351.602
351.602
351.694
351.501
351.602
351.344
350.933
350.597
351.373
351.354
351.348
351.373
351.373
351.355
351.31
351.381
351.388
351.471
351.388
351.416
351.707
351.29
351.409
351.394
351.474
351.535
351.444
351.369
351.474
351.354
351.273
351.281
351.365
351.409
351.659
339.039
351.329
351.26
351.337
351.234
351.274
351.202
351.348
351.326
351.35
350.79
350.803
351.343
351.349
351.356
351.324
351.292
351.332
351.574
351.345
351.308
351.325
327.64
351.458
351.4
351.418
351.383
351.781
351.496
351.605
351.38
351.366
351.454
351.37
351.368
351.352
328.192
351.42
351.381
306.23
351.406
351.325
351.293
314.54
351.325
351.397
348.243
351.422
305.946
351.361
351.42
351.431
317.262
306.249
351.276
351.378
351.395
321.333
298.954
299.034
351.42
351.429
351.42
303.94
351.731
302.845
298.834
351.528
351.425
351.528
351.461
351.706
351.505
316.257
350.959
351.585
299.223
306.903
350.812
351.426
299.257
351.607
337.356
319.136
307.69
293.518
301.565
311.532
336.097
295.865
305.222
296.199
351.388
304.028
300.952
351.212
351.039
297.277
296.926
308.056
295.88
307.201
297.628
351.367
300.154
299.537
351.377
351.398
293.402
321.143
308.719
292.329
300.36
351.4
298.824
351.4
322.886
351.436
351.307
296.705
351.398
296.048
295.537
301.073
351.398
339.922
351.526
299.153
304.094
293.596
300.03
351.458
351.433
299.18
294.106
296.867
314.161
301.101
318.268
298.621
351.712
351.302
299.341
293.723
296.943
351.377
292.871
298.645
296.42
297.831
297.738
314.722
351.382
298.084
293.335
351.382
297.015
351.47
297.468
299.067
310.229
294.478
351.346
351.366
351.35
304.444
298.068
351.346
294.564
351.35
295.73
304.002
291.14
345.086
296.546
298.936
290.798
301.619
298.764
351.481
297.706
300.644
290.371
299.927
299.682
296.322
299.711
351.472
295.327
305.376
351.469
297.748
296.548
298.985
299.304
351.469
304.012
351.449
299.739
296.962
307.566
299.199
299.447
300.689
300.578
300.407
298.664
298.556
296.687
301.307
299.397
298.797
299.861
299.983
)


// ************************************************************************* //
