/*--------------------------------*- C++ -*----------------------------------*\
  =========                 |
  \\      /  F ield         | OpenFOAM: The Open Source CFD Toolbox
   \\    /   O peration     | Website:  https://openfoam.org
    \\  /    A nd           | Version:  6
     \\/     M anipulation  |
\*---------------------------------------------------------------------------*/
FoamFile
{
    version     2.0;
    format      ascii;
    class       scalarField;
    location    "0.005/lagrangian/sprayCloud";
    object      tMom;
}
// * * * * * * * * * * * * * * * * * * * * * * * * * * * * * * * * * * * * * //


531
(
0.0044562
0.00422724
0.00296969
0.00234415
0.00247474
0.00209155
0.0023864
0.00244573
0.00216265
0.00292437
0.00168238
0.00262615
0.00221546
0.00159607
0.0015369
0.00175159
0.000897786
0.000762018
4.14522e-05
0.00160342
0.000675658
0.0011529
0.000508422
1.15546e-05
0.000594811
0.000345606
0.000793952
0.00031302
0.000244228
0.000834034
0.000640311
0.00133297
0.000599562
0.000559887
0.000639326
0.000790796
0.000276039
0.000556034
0.00045194
0.00117268
0.000717144
0.000398634
2.48768e-05
0.00158959
0.00142659
0.000195915
0.000759558
0.000616937
0.0006466
0.0017328
0.00025213
0.0018851
0.00162644
0.00168566
6.82653e-05
0.00131176
0.00147836
0.0014402
0.000592555
0.000104213
0.00126358
0.00105842
0.000220878
0.00249381
0.000380771
2.98502e-05
0.00188205
0.000248518
5.38699e-05
4.89974e-05
0.000144281
6.28011e-05
0.0037486
0.00216828
0.00242244
0.00264856
0.00266241
0.00109752
0.00160305
0.00332669
0.00242032
0.00228503
0.00222852
0.000627048
0.00132734
0.00232958
0.000633814
0.00192266
0.00143451
0.000190392
0.00135386
7.41587e-05
0.00299861
0.00255113
0.00220528
0.00268254
0.00234266
0.00117641
0.0019387
0.00126253
0.00153996
0.0021132
0.00214836
0.00191855
0.00119365
0.00145159
0.000443318
0.00165756
0.00222008
0.000592381
0.00219063
0.0016487
7.1904e-05
0.000611416
0.00205689
0.00219289
0.000433781
0.00204677
0.00059518
0.000511522
0.00159569
3.19196e-05
7.08678e-05
0.00081795
0.00180785
0.000447426
0.0005275
0.001529
0.000581452
0.000621657
0.0013247
0.000220325
0.00130543
1.39401e-06
0.000957971
0.00157575
0.000470987
0.000157106
0.00017258
0.000110955
0.00131508
0.000243607
0.000308305
0.000269937
0.001588
0.000810051
1.81084e-05
0.000628624
0.00123446
7.54963e-05
0.00168947
0.00135616
0.00058353
0.00055086
0.00114609
0.000352511
0.000653304
0.00038659
0.000819223
0.000899559
0.00166788
0.000132203
0.000571835
8.40345e-05
0.000594536
0.00149121
0.000403003
0.000148507
0.000336047
0.000185521
0.000960489
0.00178791
0.000121571
0.000383134
1.11302e-05
0.00121256
0.00158949
3.92673e-05
0.00108345
0.000341676
0.000131901
0.000138032
0.000484956
0.000708488
0.00118491
8.42709e-05
4.53301e-05
0.000383527
0.00203984
0.000187217
1.23803e-05
4.81178e-06
2.2289e-05
0.000160563
0.000727526
7.80813e-06
0.000476027
0.000469199
1.48812e-05
0.000509142
1.27791e-05
0.00025948
0.000423198
3.2399e-06
0.00153476
0.000405653
6.83683e-05
0.000839069
9.19324e-05
0.000213157
0.000660086
0.00117493
0.00221849
0.000116767
0.000103972
0.000173283
0.000277546
0.000168574
0.000157856
0.000262724
0.000606585
0.000181055
0.000466932
0.000147442
0.000305651
0.000797729
0.000875871
0.000709229
0.000222627
0.000131573
7.319e-05
0.000111776
0.000144252
0.000643109
9.3202e-05
0.000243435
0.0019952
5.73787e-05
0.00015
0.000264535
0.000583882
0.000288373
0.00101853
5.50286e-05
0.000823229
0.000562696
0.000193959
0.00123527
1.80635e-05
2.52258e-05
0.00353082
0.000978869
0.000202622
0.00115512
0.000821137
0.00020865
0.000871084
0.000251289
7.14616e-05
9.60155e-06
0.000658717
0.000116861
3.49877e-05
1.9358e-05
0.000248951
0.000652981
0.001635
0.000109995
0.000249974
0.000963222
0.00313889
0.000189114
0.0020876
4.30373e-05
0.000482405
0.000798858
0.000472162
0.000176856
4.53994e-05
1.98804e-06
0.00134382
0.000793443
0.000235419
7.85142e-05
4.06831e-05
1.88706e-05
6.32797e-05
0.000477016
0.000272732
0.000323219
0.000664633
0.000378397
0.000374375
0.00170279
0.000743533
0.00021183
0.0033191
0.00232007
0.000102951
0.00024925
0.000458288
6.73651e-05
0.000440286
1.24536e-06
0.000113464
0.000138894
0.000341224
0.000374826
0.000450527
0.000825684
0.00070698
0.00158594
4.37754e-05
0.000882753
0.00084907
0.000285772
0.00037439
0.00294053
9.31628e-05
2.09623e-05
4.66477e-05
8.38554e-05
0.000469045
0.000935113
7.05932e-05
0.00188195
4.38153e-05
0.000287566
0.00248764
1.93151e-05
0.000123528
6.42033e-05
9.26303e-05
7.33886e-06
0.000631611
0.00190187
6.18247e-05
7.93228e-05
0.000115522
0.000943493
9.02924e-05
2.51547e-05
0.000247876
3.14954e-05
5.58565e-07
3.59002e-05
5.97569e-05
0.000167974
0.000224131
8.19829e-05
0.00168078
0.000462625
4.19333e-05
0.000539846
0.000465047
0.000238961
0.00147103
7.02534e-05
4.98242e-05
0.000357724
0.000415818
0.000562035
0.000329223
0.00103539
0.000402665
0.000594286
0.00044026
0.000226029
0.000133767
0.00071873
0.000862959
0.000217624
0.000217042
0.000415934
0.000426633
0.000455625
0.00137875
0.000170123
2.19128e-05
0.000286209
0.000309296
0.000152156
0.000873557
0.00297894
0.000119357
0.000190301
0.000346331
5.0116e-05
0.000250058
0.000231913
0.000522281
3.95268e-05
0.0008979
0.00258048
0.00174152
4.69063e-05
0.000301114
0.00374599
0.000122147
0.000590545
0.000548351
0.000234586
0.00037029
0.00179308
0.0010611
0.00103899
0.000585116
0.000324005
0.000409701
0.000190045
9.54975e-05
0.000273056
6.36999e-05
8.76669e-05
0.000412166
0.00133329
0.000127183
0.000928594
0.000164941
0.00129523
0.000172566
0.00036125
0.00164829
0.000127916
2.40358e-05
0.000150754
0.000226666
0.000641344
0.000254735
0.000797395
4.58871e-05
0.000478277
5.19481e-05
0.00120004
0.000557966
0.000889049
0.00078683
2.33881e-05
0.000915975
0.000454278
0.000122337
0.00165753
0.000692343
3.29896e-05
0.00080634
0.000189565
0.000469951
0.00474987
0.000253315
0.000384512
0.000790991
0.000421718
0.00118409
6.18742e-05
0.000605937
0.000924261
0.00259016
9.02946e-05
0.000122332
0.00199359
0.00018154
0.000734854
0.000224769
0.000224832
8.50128e-05
0.000300996
0.000635719
0.00124993
0.00020374
0.000872601
0.00122615
0.000146186
0.000489978
0.000129217
1.59678e-06
0.000984872
0.00300011
0.00135508
0.000365113
9.5375e-05
0.000148673
0.000102456
0.00349948
0.00121672
0.00023904
0.000303819
0.000734943
0.000470199
0.000230946
0.000150562
0.00128545
0.000341504
0.00194288
0.000133034
0.000396187
0.000922313
1.92901e-05
0.000748175
0.000326042
0.000111331
0.00149452
0.000342451
0.000281545
0.0059516
0.000169795
0.000255437
0.000273695
0.00011319
0.00055771
0.00033749
0.00113855
0.00161287
0.000221917
0.00026243
1.42394e-05
0.00327144
0.000253258
0.000104135
0.000820309
0.00117943
0.000642514
0.000526151
0.000882308
0.000296914
0.000258047
9.71841e-05
0.000745005
0.000468109
0.000176329
0.00105354
0.00223258
)


// ************************************************************************* //
