/*--------------------------------*- C++ -*----------------------------------*\
  =========                 |
  \\      /  F ield         | OpenFOAM: The Open Source CFD Toolbox
   \\    /   O peration     | Website:  https://openfoam.org
    \\  /    A nd           | Version:  6
     \\/     M anipulation  |
\*---------------------------------------------------------------------------*/
FoamFile
{
    version     2.0;
    format      ascii;
    class       scalarField;
    location    "0.005/lagrangian/sprayCloud";
    object      tTurb;
}
// * * * * * * * * * * * * * * * * * * * * * * * * * * * * * * * * * * * * * //


531
(
0.00021294
0.000184724
0.000164977
0.000305881
0.000127586
8.99543e-05
7.34626e-05
0.000248865
2.53236e-05
0.00011359
5.85034e-06
0.000363676
0.000363676
5.30394e-05
3.78987e-05
7.52187e-06
0.000258867
0.000611032
0.000938069
4.83868e-05
0.000239992
0.000235311
0.000213767
0.000821726
0.000622129
0.000684564
5.16437e-05
0.000227061
0.000209022
0.000372688
0.000250638
0.000531171
1.58795e-05
1.86654e-05
0.000634219
0.000117842
0.000184724
1.39294e-06
0.000179911
0.000322901
7.69609e-05
2.42371e-05
0.000830166
5.44352e-05
7.99593e-05
0.000103867
3.13725e-05
2.42371e-05
1.86654e-05
4.83868e-05
0.000337596
1.39294e-07
0.000273989
4.23925e-05
0.000413739
0.000179911
9.58059e-05
3.96345e-05
0.00013105
0.00029924
7.84601e-05
4.23925e-05
0.000239992
0.000209022
4.23925e-05
0.000357679
4.15824e-05
3.37365e-05
0.000924828
0.000785005
0.00101173
0.000834519
0.000207481
1.22579e-05
1.39294e-07
1.03077e-05
1.53223e-06
1.03077e-05
1.58795e-05
2.6828e-05
3.90023e-06
1.03077e-05
1.4208e-05
4.23925e-05
2.14513e-05
3.64838e-06
2.34014e-05
8.63622e-06
9.75057e-07
4.83868e-05
1.03077e-05
4.97826e-05
1.86654e-05
4.73599e-06
1.03077e-05
8.22439e-05
4.97826e-05
3.06447e-06
6.09065e-05
1.4208e-05
1.86654e-05
1.67153e-05
0.000248865
8.39573e-05
1.86654e-05
2.9189e-05
5.44352e-05
2.53236e-05
2.42371e-05
3.90023e-06
6.55916e-05
9.75057e-07
0.000191131
0.000155592
1.30936e-05
0.000401418
2.42371e-05
0.000178356
9.75057e-07
2.42371e-05
6.68611e-06
5.93839e-05
1.58795e-05
3.66691e-05
2.6828e-05
5.93839e-05
2.9189e-05
4.97826e-05
7.52187e-06
2.14513e-05
1.30936e-05
6.41861e-05
1.58795e-05
0.000191131
8.63622e-06
1.11435e-05
7.52187e-06
5.93839e-05
2.42371e-05
3.58701e-05
5.85034e-06
2.42371e-05
7.52187e-06
2.14513e-05
1.14221e-05
1.14221e-05
0.00044462
1.58795e-05
5.57176e-06
7.52187e-06
7.84601e-05
5.57176e-07
1.58795e-05
1.97797e-05
1.14221e-05
3.90023e-06
4.73599e-06
1.03077e-05
2.06155e-05
2.42371e-05
1.67153e-05
0.000213767
3.37365e-05
3.96345e-05
1.58795e-05
6.68611e-06
2.14513e-05
5.93839e-05
1.58795e-05
1.03077e-05
1.22579e-05
1.03077e-05
1.58795e-05
3.37365e-05
7.52187e-06
0
9.40386e-06
4.97826e-05
1.22579e-05
1.58795e-05
6.41861e-05
5.93839e-05
7.00839e-06
9.75057e-07
5.57176e-06
2.42371e-05
4.97826e-05
3.37365e-05
6.68611e-06
3.29977e-05
0.000315843
0.000107516
6.41861e-05
0.000129318
3.06447e-06
0.000321313
1.30936e-05
1.86654e-05
6.41861e-05
2.78588e-06
5.93839e-05
2.14513e-05
4.97826e-05
0.000315843
5.57176e-06
4.73599e-06
6.41861e-05
1.86654e-05
5.93839e-05
2.368e-06
2.34014e-05
1.4208e-05
3.06447e-06
4.73599e-06
0.000168768
0.000174576
3.96345e-05
0.000179911
5.93839e-05
0.00011359
6.41861e-05
0.000179911
4.23925e-05
7.84601e-05
0.00011359
4.55288e-05
6.86526e-05
9.81006e-05
2.6828e-05
0.000213767
0.000315843
0.000252411
4.55288e-05
5.44352e-05
5.93839e-05
6.41861e-05
1.58795e-05
3.66691e-05
0.000239992
2.97544e-05
0.000155592
6.41861e-05
4.45319e-05
0.000197788
0.000197788
0.000141773
0.000213767
3.13725e-05
0.000802124
0.000645173
8.62826e-05
5.93839e-05
0.000246412
0.000101543
0.000136655
4.55288e-05
0.000144008
0.000195855
2.368e-06
0.000367432
1.58795e-05
5.44352e-05
0.000227061
0.000367432
3.13725e-05
3.87666e-05
0.000125352
3.78987e-05
0.000174576
7.84601e-05
3.78987e-05
7.84601e-05
7.84601e-05
3.66691e-05
9.75057e-07
6.41861e-05
0.00013105
7.84601e-05
0.00011359
0.000388495
8.99543e-05
9.75057e-07
0.000283927
0.000101543
2.9189e-05
2.6828e-05
0.000125352
0.000125352
9.75057e-07
0.000162446
0.000119665
4.97826e-05
0.000107516
4.69911e-05
0.000136655
0.000119665
1.86654e-05
3.13725e-05
0.000119665
2.9189e-05
2.14513e-05
0.000246412
7.69609e-05
0.000358237
1.86654e-05
7.84601e-05
1.86654e-05
7.84601e-05
1.58795e-05
0.000162446
1.30936e-05
7.52187e-06
5.93839e-05
1.58795e-05
0.000119665
5.63385e-05
6.41861e-05
1.58795e-05
8.39573e-05
1.03077e-05
0.000319725
5.93839e-05
2.368e-06
5.93839e-05
8.39573e-05
4.97826e-05
0.000239992
3.66691e-05
3.37365e-05
0.000283927
9.98217e-05
4.55288e-05
3.96345e-05
4.97826e-05
0.000131214
1.37004e-06
0.00013105
3.66691e-05
3.66691e-05
4.55288e-05
0.000155592
4.97826e-05
6.1375e-05
4.23925e-05
0.00013105
6.41861e-05
0.000107516
2.368e-06
0.000101543
0.000107516
3.66691e-05
6.27806e-05
0.000125352
1.30936e-05
4.73599e-06
4.73599e-06
7.84601e-05
4.73599e-06
4.73599e-06
4.55288e-05
0.000101543
4.55288e-05
2.9189e-05
2.14513e-05
4.23925e-05
2.368e-06
4.55288e-05
2.6828e-05
4.55288e-05
5.16437e-05
9.75057e-07
3.13725e-05
2.9189e-05
4.55288e-05
7.34626e-05
7.34626e-05
7.34626e-05
5.93839e-05
5.93839e-05
4.55288e-05
4.97826e-05
6.20614e-05
3.37986e-05
4.97826e-05
4.55288e-05
4.55288e-05
2.781e-05
4.23925e-05
3.13725e-05
2.368e-06
3.37365e-05
4.55288e-05
3.13725e-05
4.23925e-05
5.18242e-05
4.55288e-05
2.42371e-05
4.08169e-05
4.55288e-05
2.368e-06
2.368e-06
3.66691e-05
3.66691e-05
4.73599e-06
4.55288e-05
2.42371e-05
4.55288e-05
4.23925e-05
0.000155592
2.9189e-05
4.23925e-05
3.96345e-05
5.85034e-06
7.52187e-06
9.98217e-05
0.00011359
4.23925e-05
5.93839e-05
1.30936e-05
2.53236e-05
6.41861e-05
2.9189e-05
3.2259e-05
2.368e-06
6.41861e-05
1.86654e-05
6.86526e-05
2.9189e-05
1.30936e-05
0.000125352
4.97826e-05
4.55288e-05
2.6828e-05
6.27806e-05
3.96345e-05
1.97797e-05
1.03077e-05
2.6828e-05
7.34626e-05
0.00011359
3.66691e-05
1.30936e-05
1.03077e-05
4.69911e-05
1.03077e-05
0.000107516
0.000107516
3.47887e-05
3.37365e-05
3.37365e-05
9.47199e-06
1.03077e-05
5.78612e-05
6.99479e-05
1.86654e-05
2.34014e-05
0.000111768
3.13725e-05
3.0092e-05
1.86654e-05
0.000136655
0.000340465
8.35764e-06
3.13725e-05
0.00032349
1.86654e-05
5.44352e-05
0.000305059
1.03077e-05
1.14221e-05
9.23637e-05
8.99543e-05
0
0.000127586
9.75057e-07
0.000260096
4.73599e-06
3.06447e-06
6.99644e-05
1.03077e-05
1.03077e-05
1.03077e-05
1.4208e-05
0.000219718
2.14513e-05
3.87784e-05
1.03077e-05
0.000206854
1.14221e-05
3.66691e-05
1.53223e-06
1.03077e-05
3.0092e-05
0.000182763
2.14513e-05
2.60758e-05
1.03077e-05
0.000164503
1.14221e-05
0.000152679
1.58795e-05
1.69939e-05
2.34014e-05
0.000132531
3.06447e-06
0.000121487
9.47199e-06
1.30936e-05
5.57176e-06
0.000103264
9.79094e-05
3.13725e-05
7.52187e-06
3.06447e-06
1.58795e-05
7.02768e-05
6.67629e-05
1.39294e-07
5.5831e-05
5.23415e-05
5.57176e-07
4.73599e-06
3.90023e-06
3.21769e-05
3.04531e-05
2.78588e-05
2.368e-06
2.2287e-05
1.67153e-05
1.11435e-05
2.78588e-06
)


// ************************************************************************* //
