/*--------------------------------*- C++ -*----------------------------------*\
  =========                 |
  \\      /  F ield         | OpenFOAM: The Open Source CFD Toolbox
   \\    /   O peration     | Website:  https://openfoam.org
    \\  /    A nd           | Version:  6
     \\/     M anipulation  |
\*---------------------------------------------------------------------------*/
FoamFile
{
    version     2.0;
    format      ascii;
    class       vectorField;
    location    "0.005/lagrangian/sprayCloud";
    object      U;
}
// * * * * * * * * * * * * * * * * * * * * * * * * * * * * * * * * * * * * * //


531
(
(18.9422 0.547578 -0.0382412)
(18.2259 0.385711 -0.0710719)
(25.3051 0.869707 -0.000330438)
(18.9034 1.55039 -0.039562)
(24.8114 1.62713 0.0130102)
(16.3675 0.561388 -0.0178115)
(24.3869 1.50353 -0.0120061)
(20.3487 2.32944 -0.0282604)
(19.6685 1.80093 -0.0227927)
(15.1729 0.790875 0.028214)
(26.4347 0.981299 0.0820597)
(15.9426 1.69858 0.0811618)
(16.0871 1.87892 0.00265465)
(22.9349 1.21492 0.0582324)
(27.0501 0.955547 -0.0183015)
(19.0975 1.26775 -0.0462358)
(2.84651 3.18536 0.274577)
(2.24639 2.90143 -0.595758)
(2.93096 1.17373 1.71322)
(4.99335 3.92821 0.0667145)
(2.30699 2.63961 -0.0424749)
(3.68253 3.81565 -0.204316)
(2.04588 2.74368 0.0280426)
(-3.22462 -0.290646 -0.764411)
(1.28648 2.66462 -0.299697)
(-0.312249 3.82379 1.48259)
(2.35668 3.5631 -0.152302)
(1.05862 2.4036 0.345705)
(1.50996 2.67213 -0.35437)
(2.67395 2.62734 0.288509)
(1.97936 3.17481 -0.250212)
(3.61876 4.31327 -0.122315)
(2.05722 3.51963 -0.0728629)
(2.38556 3.30555 0.607756)
(1.7503 3.3054 -0.228811)
(2.71812 3.65955 -0.698792)
(1.55925 4.32094 -0.919639)
(1.71842 2.57825 0.0661529)
(1.25985 3.03682 0.948889)
(3.0444 4.73468 0.136034)
(2.456 4.46299 0.0316081)
(1.6663 3.71573 0.0775397)
(0.639939 3.30412 0.729653)
(6.11585 4.67466 0.25405)
(5.36537 5.09978 -0.159865)
(0.488126 5.13402 2.23609)
(3.36789 4.50109 -0.179395)
(1.86135 4.23448 -0.0307827)
(1.13477 4.1377 -0.0460718)
(6.42178 4.88306 0.0234324)
(1.76019 4.02057 -0.0524673)
(7.39373 4.61665 -0.053459)
(8.86124 5.01738 0.0206536)
(7.07625 4.5628 -0.17729)
(0.381999 3.62339 0.757274)
(4.62003 4.95557 -0.00770817)
(6.40049 4.86948 0.0468631)
(6.51075 5.11426 -0.0755562)
(2.16186 4.70775 0.321545)
(1.10788 3.23716 -0.774338)
(6.14838 5.05658 -0.075574)
(4.5821 4.98357 -0.033117)
(0.853627 3.08225 -0.648557)
(11.0374 4.10361 -0.149012)
(1.50569 5.10874 0.685302)
(3.12284 4.99756 -0.040865)
(8.27896 4.51738 0.0947598)
(0.978634 7.0526 -0.118629)
(2.37494 0.175416 3.02442)
(2.26956 -0.156801 0.799053)
(1.64079 0.788829 -0.532069)
(3.15728 -0.138916 -0.131346)
(14.4415 1.09533 0.0752442)
(13.5781 1.86082 -0.00963203)
(13.0032 2.2263 0.000842979)
(13.2795 1.92378 -0.192958)
(12.6753 2.98717 -0.248863)
(13.0468 4.22015 -0.346008)
(13.2869 2.25954 0.0134466)
(13.9452 1.47953 -0.183644)
(10.9993 4.12391 -0.0721453)
(12.3334 3.31227 0.113901)
(11.2235 3.91207 0.0490129)
(9.4924 7.02074 0.42625)
(8.41193 6.08519 -0.372941)
(11.4535 4.20665 -0.0642087)
(6.02203 6.66715 0.364002)
(9.60869 4.21677 0.0548879)
(7.2275 4.70626 0.0598068)
(0.506137 7.68509 0.0555156)
(8.02823 5.63795 -0.154703)
(0.434767 8.72425 -0.854438)
(14.0349 1.39015 0.0453993)
(12.0971 3.6658 0.0925264)
(12.2062 2.73375 0.033625)
(12.9443 2.50665 -0.0445384)
(11.452 3.53548 -0.129593)
(7.05351 5.73948 -0.0957132)
(9.81727 4.36139 0.0883378)
(8.73226 5.0912 -0.0921302)
(9.40184 4.65451 -0.0370793)
(11.8572 3.28386 -0.0567556)
(11.1202 4.27408 0.0267619)
(10.5574 4.42939 -0.0261186)
(8.75512 5.12294 -0.0152331)
(7.42176 5.05477 -0.0672339)
(1.89257 6.50297 0.512013)
(10.7998 3.84275 -0.0242786)
(13.2645 3.3671 -0.0133139)
(11.5926 0.478098 -0.0499089)
(13.0844 4.03809 -0.157113)
(9.83595 4.39007 -0.0630797)
(2.93057 6.48227 -0.289597)
(3.54213 5.18791 0.0233751)
(13.3713 2.91036 0.0176627)
(14.8941 3.19566 -0.0684014)
(10.1806 4.50885 0.0104676)
(15.7587 2.13696 0.00122796)
(11.1146 3.06228 -0.0557312)
(9.8698 5.21838 -0.024803)
(12.4456 1.62322 -0.0138188)
(4.89794 4.91077 4.56372)
(6.57367 7.69913 0.325872)
(5.79843 5.33796 -0.160833)
(13.2462 2.86853 0.0130979)
(3.54862 5.74128 0.129793)
(7.97046 6.42996 -0.023861)
(10.0304 4.95203 -0.114726)
(5.46295 5.89796 -0.0368757)
(7.13759 6.29759 -0.00307342)
(11.3129 4.30103 -0.0553886)
(3.23766 8.62629 0.148291)
(13.382 2.04134 -0.024844)
(2.20367 6.70151 0.255229)
(10.4823 4.81712 0.00355542)
(13.4906 3.40557 -0.0302381)
(7.94846 6.89143 -0.086139)
(1.96048 8.5047 -0.832447)
(3.77375 9.46277 0.716238)
(10.1105 10.5966 0.241775)
(11.9637 5.13763 -0.0577465)
(5.15396 9.10973 -0.757296)
(7.59749 8.00799 0.177378)
(12.17 5.09282 -0.750338)
(15.8968 4.84587 -0.0198538)
(13.9313 4.01504 0.111778)
(5.72327 4.64919 -1.22195)
(7.01497 7.41804 -0.099548)
(15.7125 4.06462 -0.093303)
(7.76189 9.36077 -0.0812403)
(21.9358 2.47792 -0.0435948)
(16.4546 4.12366 0.0071169)
(15.6513 1.47533 -0.00703747)
(15.2021 3.77372 -0.0275931)
(16.7023 4.3742 0.132842)
(2.9129 8.35741 1.03159)
(11.665 7.59781 0.0334794)
(10.3013 8.34261 0.0665204)
(18.0162 2.5896 -0.0919663)
(10.3946 8.28692 0.0222006)
(27.783 2.12781 0.0790965)
(1.67035 6.34613 -1.90048)
(10.8432 8.99124 -0.0870906)
(18.3149 7.38711 -0.509924)
(9.50279 8.98616 -0.424347)
(27.1008 2.77611 -0.0620448)
(7.90778 6.09187 0.592988)
(2.07928 9.28599 0.503015)
(19.9862 2.35676 0.220453)
(7.18951 7.3314 -0.952837)
(22.5136 4.48441 -0.0542602)
(31.0575 3.51981 -0.0524138)
(21.4199 2.51939 0.128222)
(10.2994 9.25743 0.260297)
(5.76302 3.32109 -1.27209)
(26.77 4.35408 0.122733)
(35.3131 1.68347 -0.0808259)
(16.6588 3.66265 -0.30694)
(26.7175 3.48556 0.000943719)
(22.1763 2.88573 0.0309603)
(16.9616 7.82444 -2.62694)
(19.9924 6.70325 0.614885)
(15.145 7.52152 -0.339389)
(15.8858 8.83134 -0.0953579)
(23.7349 7.45955 -0.287138)
(8.3807 4.32984 -0.0459238)
(22.0839 0.859421 -1.80222)
(15.8502 8.32009 -0.621315)
(45.3748 1.02609 -0.0759274)
(25.9427 3.18498 -0.729945)
(15.8375 3.7795 -0.696974)
(22.3809 13.8954 4.71104)
(20.8196 3.28041 0.723118)
(28.6487 2.04998 -2.59058)
(31.975 4.3092 -0.132615)
(18.2218 2.70136 -0.260244)
(18.9286 7.47166 0.694948)
(21.4659 6.64967 0.235537)
(25.7091 5.46297 -0.936631)
(30.9762 4.99908 0.456115)
(31.2136 3.66133 2.48886)
(31.1591 6.29938 -0.00847372)
(21.9657 7.07223 0.0604413)
(40.2741 0.145565 -4.79797)
(46.5728 2.51142 0.0584427)
(39.2445 3.40432 -0.518466)
(35.2366 9.56849 -6.65728)
(43.7975 3.23116 0.0792147)
(38.4555 1.94855 1.22277)
(45.6998 1.72061 0.870515)
(46.1423 3.81299 0.184555)
(53.7896 1.14039 0.082875)
(58.9131 0.368253 0.101998)
(33.913 5.40312 0.808763)
(46.0732 2.71078 -4.30635)
(47.3569 1.12018 2.09828)
(43.429 2.30015 0.459461)
(49.6676 2.08986 1.50381)
(50.7639 0.069344 -1.27888)
(48.5245 1.54689 1.02503)
(52.7641 2.17775 1.64128)
(49.257 3.34987 0.360667)
(50.0413 1.4927 -0.336545)
(46.9538 0.725496 -0.14654)
(57.0788 0.857097 -2.06011)
(55.1835 0.521949 -0.31944)
(58.7981 0.0634048 -0.82036)
(60.2743 -0.273693 -0.184698)
(56.6131 -0.906251 0.151588)
(52.1216 1.88056 -7.51754)
(47.0301 -2.88207 2.9159)
(49.6619 -1.49417 2.90497)
(45.3898 0.899567 -0.182445)
(53.174 3.01943 -0.224092)
(60.3959 0.923648 0.130195)
(54.845 2.38319 4.05839)
(59.1078 1.32628 -0.862514)
(41.0128 -2.05683 3.07512)
(52.679 0.369886 0.0678989)
(46.2813 0.76606 3.87867)
(55.4376 -0.998252 -0.905686)
(48.9988 3.49789 0.0456329)
(61.2708 -0.0170868 -0.361999)
(40.9896 2.29191 0.564358)
(62.242 0.441918 -0.0352669)
(52.4527 -0.223016 0.632312)
(56.1045 1.77899 -1.03374)
(59.5466 1.5205 1.25276)
(23.7057 8.85202 -2.56311)
(34.5377 8.57368 8.13444)
(64.8448 0.744447 0.0146957)
(60.8615 1.03635 0.658633)
(56.5794 -0.600894 0.565301)
(59.304 0.759371 0.761415)
(50.9676 2.54879 0.0950316)
(59.0513 0.54614 0.948967)
(52.8968 0.674669 -0.638705)
(59.7973 2.16195 -0.691949)
(61.5916 0.661458 0.399706)
(59.3923 1.0613 0.0192824)
(55.4606 -0.176594 -2.31944)
(62.2457 1.5605 -0.0426257)
(61.2862 -2.33323 -2.41574)
(62.0006 0.570808 -1.04611)
(50.5924 4.2322 -2.07881)
(60.5454 0.00801399 0.951822)
(61.6432 1.11598 -0.303792)
(64.0033 -0.891203 -1.24192)
(61.6556 -0.686384 1.09386)
(60.4822 1.87462 0.121825)
(63.9015 0.904202 -0.156439)
(55.5587 -1.88242 -3.31484)
(62.1406 1.25805 -0.216501)
(52.3811 -1.27812 -1.62805)
(58.0616 1.99607 0.743294)
(65.0516 -0.208692 -0.521661)
(54.6456 1.32381 0.546832)
(55.2608 1.01506 0.479882)
(37.9704 0.953551 4.93805)
(49.6665 2.39452 -1.22683)
(61.2627 1.76223 0.595178)
(60.5274 1.22699 0.484839)
(56.9957 1.87772 -3.95893)
(57.7234 0.81312 0.674801)
(62.2459 0.152669 0.964851)
(68.4577 0.340185 -1.10365)
(63.1069 0.193914 4.61151)
(52.3434 2.47593 0.448491)
(50.432 0.680502 1.74592)
(53.6481 2.11426 -0.563726)
(60.7126 2.55337 -0.335906)
(62.6346 2.03043 -0.220642)
(62.4314 1.25324 -0.0999316)
(62.892 2.39118 -0.721021)
(61.9006 1.82845 -0.0594521)
(58.4669 3.49834 0.191751)
(66.2165 0.580285 0.00830449)
(66.5386 0.51588 -0.136863)
(60.1552 1.77164 -1.45342)
(64.2791 1.04474 0.435079)
(61.9455 2.76892 0.768957)
(56.0137 4.45544 -1.55646)
(65.9439 0.697157 0.204016)
(33.679 5.97909 6.94508)
(60.9289 2.65343 0.340029)
(60.1595 2.40643 0.0407689)
(63.8546 2.28149 -0.00609585)
(65.893 0.980718 -0.4256)
(63.4183 2.10194 -0.00552859)
(58.1868 4.27871 -0.62648)
(64.645 2.10894 0.307899)
(61.3984 2.5405 -0.0475927)
(65.6031 1.89358 -1.06211)
(63.5494 2.4856 -0.0177512)
(60.3012 2.91956 0.486432)
(65.5318 2.10861 0.127796)
(65.9926 1.96762 -0.00161936)
(66.7478 0.0483893 0.120897)
(45.635 4.09227 -4.39299)
(63.496 1.83364 -1.21519)
(30.3498 2.93207 0.00396845)
(66.7154 0.995421 0.286014)
(63.2401 3.63243 -0.175028)
(66.2361 0.925599 -0.0596924)
(33.2389 2.34935 -2.16593)
(62.601 2.80582 -0.194521)
(52.4245 3.10161 -0.253935)
(64.7581 3.54092 -0.0982293)
(65.6093 1.46956 0.031244)
(31.5346 20.7615 -4.64563)
(45.1956 6.8723 -0.261038)
(64.9155 4.01192 0.279065)
(68.1133 0.754531 -0.351285)
(66.0244 5.82112 -0.244796)
(59.9253 4.96804 0.387435)
(65.5447 1.7858 -0.0879195)
(55.5714 3.45016 2.06757)
(64.1217 5.40581 -1.14098)
(65.3415 4.88078 -0.0633934)
(66.0288 1.06389 -0.105521)
(39.3134 5.81552 0.338188)
(45.4963 6.57226 0.0645445)
(50.7738 5.66452 0.293038)
(42.4054 4.64244 -0.825635)
(44.3444 4.92599 0.28699)
(60.6499 4.28477 -0.504126)
(56.2384 6.59423 1.1723)
(62.8174 4.82384 -0.560678)
(61.056 4.66012 -0.476228)
(66.029 3.01901 -0.17771)
(64.5279 2.15281 -0.0638992)
(64.5679 3.54166 0.0298783)
(63.5516 6.18199 0.407406)
(65.8667 1.20967 0.0939186)
(65.6786 2.09477 -0.268332)
(65.5694 3.05045 0.526047)
(66.4456 0.285365 0.0770227)
(56.544 5.76829 -1.00707)
(65.4589 6.05831 0.509014)
(65.3895 2.76267 0.247931)
(65.6506 0.819512 -0.344017)
(64.8445 2.83184 -0.115286)
(61.8142 4.41753 0.156341)
(65.8501 1.1011 -0.220211)
(60.3212 4.9917 0.217471)
(66.0158 0.549499 0.00143867)
(62.9031 4.11241 -0.0406117)
(60.2592 5.23325 0.339661)
(66.5365 1.28629 -0.323404)
(65.8909 0.84464 -0.320635)
(66.1353 0.530635 0.179344)
(65.4099 2.63103 0.222441)
(61.1927 6.2496 -0.436023)
(64.8345 3.40155 -0.274016)
(65.2607 1.14752 0.0288217)
(66.6455 0.427635 -0.163472)
(66.5825 0.116023 -0.109966)
(65.6156 4.35225 0.0429899)
(67.6337 7.92405 -0.546021)
(65.0074 3.58611 0.228755)
(66.8577 0.550443 -0.0208222)
(56.4198 5.01788 0.201735)
(66.5694 0.238909 -0.0574111)
(66.8423 0.0459127 0.0728412)
(64.0575 8.03563 -0.238193)
(61.9129 7.27368 -0.0236425)
(62.8479 5.43734 0.107395)
(67.1279 8.49537 -0.163216)
(63.2709 5.88011 0.213502)
(64.2681 4.61738 -0.50762)
(66.1255 0.956639 -0.248001)
(64.8984 3.01608 0.496568)
(64.3441 2.17785 -0.0639312)
(66.897 -0.0155255 -0.00834831)
(66.4049 0.386658 -0.129575)
(62.8114 6.6119 0.430104)
(57.4344 2.91037 0.0128448)
(66.7599 -0.0192151 -0.0389645)
(60.8223 4.62937 -0.499972)
(63.6794 1.94891 0.263695)
(64.0997 1.26971 -0.0771517)
(66.2143 0.198346 0.0584521)
(66.8186 -0.0041695 -0.0647362)
(66.1322 0.168578 -0.094156)
(64.024 0.638078 -0.0562128)
(62.8447 0.927689 0.0794783)
(66.8193 -0.00557044 -0.00282724)
(64.2829 1.34714 -0.230632)
(66.6213 0.102065 0.00686036)
(57.6224 2.11085 0.196841)
(65.8795 1.17715 0.12971)
(64.7884 1.20527 0.253026)
(52.8419 2.4823 0.0597677)
(52.7035 2.2333 -0.273564)
(64.7435 0.453417 -0.594136)
(66.9878 0.0959416 0.0265308)
(62.6992 0.201416 -1.16434)
(66.7258 -0.0987573 -0.00624558)
(61.1699 -1.33234 -0.88735)
(66.1958 0.466128 -0.069549)
(50.1714 2.63267 0.299544)
(62.2745 -0.132682 -0.0561966)
(65.2356 -0.0971706 0.0745146)
(52.3787 3.34642 0.212033)
(51.6655 2.47809 -0.838866)
(64.5963 0.0321767 -0.0204856)
(58.4112 -0.311286 0.553868)
(61.1676 0.259082 0.0265851)
(67.0142 0.0505552 0.0326714)
(62.9804 0.380814 0.424961)
(48.828 2.68979 0.117111)
(63.5506 -0.411505 0.304664)
(50.9798 3.40481 0.232805)
(62.9448 0.381173 0.0253871)
(56.6007 2.42939 -0.218715)
(61.7491 1.23559 0.00559571)
(66.8422 0.00271936 -0.00175404)
(54.4212 2.89616 -0.0101887)
(66.2958 0.148852 -0.142524)
(62.0987 0.117724 0.290112)
(66.5174 0.0987975 -0.00393214)
(62.0265 1.05107 0.0386802)
(61.4926 0.787333 0.152574)
(50.3686 4.91161 -0.803592)
(63.8703 0.21 0.262161)
(66.5119 0.299753 -0.00540632)
(65.703 0.179852 0.0102504)
(66.9383 0.00668192 0.00314662)
(56.0743 1.59535 0.618341)
(54.4558 2.43935 0.153892)
(63.7677 0.208174 0.0557934)
(64.6185 0.518192 -0.116474)
(65.7849 0.153043 -0.117957)
(66.8593 0.88473 -0.00618321)
(66.6279 0.119044 0.00128374)
(63.4072 0.289554 -0.0607766)
(66.6962 0.0665832 -0.00899446)
(56.2535 1.4921 0.0231512)
(53.3593 3.4889 0.141071)
(66.863 0.0281305 -0.00757242)
(62.2749 -0.269072 -0.404801)
(66.7279 0.0187014 1.03401e-05)
(53.5073 3.23735 0.177942)
(64.3566 -0.194825 0.0898114)
(61.7315 0.208492 0.0032165)
(63.6911 0.168481 -0.0284134)
(65.1181 0.142892 -0.0620591)
(66.8692 -0.00100159 4.62733e-05)
(56.2988 0.712324 0.0660964)
(61.3225 1.00974 0.127794)
(66.2602 0.0542833 0.033931)
(58.6208 0.422906 0.368111)
(58.7869 1.69335 0.105556)
(58.6714 -0.352527 -1.26983)
(37.9002 4.98483 -0.248297)
(66.6986 0.00873499 1.18942e-05)
(66.0811 0.0479933 -0.0516959)
(64.1177 0.236338 0.013519)
(64.6071 0.103617 -0.0381864)
(53.1269 1.70692 -0.00782607)
(50.8399 4.50689 0.0490999)
(50.7462 4.15521 0.182226)
(65.7933 0.0983167 -0.00706162)
(66.5473 0.0113163 -0.000242514)
(57.9777 1.65279 -0.00817)
(61.7885 0.109236 0.0212195)
(61.2074 1.34486 -0.0696063)
(65.7727 0.0160243 1.08853e-05)
(58.1992 0.106994 -0.492804)
(61.4009 0.101051 -0.350806)
(63.624 0.681973 0.0124348)
(60.4899 0.0792078 0.101278)
(66.66 0.0362184 -0.00317984)
(65.5996 0.078677 4.92213e-05)
(61.3774 0.113889 -0.0659879)
(65.3337 0.00794356 -0.144693)
(39.8342 5.51392 -0.264873)
(66.7622 0.0171103 -2.95575e-05)
(60.5333 0.00978238 -0.344255)
(63.7699 0.168876 -0.000168142)
(65.4675 0.0922635 -0.0592211)
(61.3365 0.250382 0.0619765)
(61.6853 -0.16148 -0.045244)
(66.9843 0.00109406 -1.94248e-06)
(56.2508 1.50848 0.00941783)
(66.4497 0.0673133 -3.32624e-05)
(61.086 0.411047 -0.0281271)
(54.5581 1.57203 0.0992886)
(65.7143 0.051044 0.000613187)
(65.2657 0.0654324 -3.28268e-05)
(66.9179 0.00598697 -2.28627e-05)
(66.5322 0.00771877 -0.000152919)
(59.2783 1.07962 0.0379229)
(61.7812 0.0170155 -0.0160206)
(36.7673 8.0523 -0.452684)
(66.8752 -0.000409044 -1.08306e-05)
(65.2298 -0.0154257 6.84503e-05)
(56.3222 0.496715 0.131722)
(66.9674 0.00251729 -3.4489e-05)
(66.6999 0.00200898 -7.31427e-06)
(65.2528 0.0211571 0.0221685)
(65.4694 0.113731 0.0187947)
(65.8801 0.0369718 0.0221202)
(66.4182 0.0621109 -0.000971652)
(66.6061 0.0397928 -0.000105924)
(64.7463 0.172592 -0.000540663)
(65.4871 0.170237 -0.0107244)
(66.7598 0.0407137 9.8751e-05)
(66.057 0.152321 0.000473223)
(66.9645 0.0183196 1.83012e-06)
(66.9963 0.0015656 1.9762e-06)
)


// ************************************************************************* //
