/*--------------------------------*- C++ -*----------------------------------*\
  =========                 |
  \\      /  F ield         | OpenFOAM: The Open Source CFD Toolbox
   \\    /   O peration     | Website:  https://openfoam.org
    \\  /    A nd           | Version:  6
     \\/     M anipulation  |
\*---------------------------------------------------------------------------*/
FoamFile
{
    version     2.0;
    format      ascii;
    class       vectorField;
    location    "0.005/lagrangian/sprayCloud";
    object      UTurb;
}
// * * * * * * * * * * * * * * * * * * * * * * * * * * * * * * * * * * * * * //


531
(
(-0.00157295 -0.00189093 0.00160792)
(-0.0336373 0.0670332 0.0266505)
(-0.0755311 -0.211715 0.155339)
(-0.148548 0.0884857 -0.0311123)
(-0.00442316 -0.00580092 0.016709)
(0.52057 0.238541 -0.227435)
(-0.0418191 -0.0815185 -0.121401)
(-0.0756559 0.193731 -0.290495)
(0.143321 0.0216229 0.213448)
(0.161669 0.56667 -0.385383)
(-0.0327725 0.02534 0.0536757)
(0.236294 0.238224 0.0367473)
(-0.310153 0.0950589 0.162491)
(0.160133 -0.0514819 0.020711)
(-0.0523331 -0.0654814 -0.225002)
(0.0955573 0.371966 -0.0527133)
(0.386327 0.388976 0.779232)
(-0.328642 0.516575 -0.947306)
(1.02807 -0.847204 1.71539)
(0.44203 0.0883279 -0.334912)
(-0.0748613 0.152077 0.0185311)
(0.226329 0.428131 -0.165573)
(0.0606619 -0.221359 0.604359)
(-4.1284 -2.29537 -0.764285)
(-0.800736 0.00857738 -0.0577131)
(-2.13522 1.75268 1.71971)
(-0.228244 -0.439455 0.585134)
(0.376191 -0.269516 0.539897)
(0.920613 1.87442 -0.516884)
(0.229753 -1.24852 0.149436)
(0.0520531 -0.0591799 0.227272)
(0.726848 1.13077 0.370574)
(0.153662 -0.285865 0.24986)
(-0.314946 0.00217695 -0.622125)
(-0.379658 0.0934931 -0.135169)
(1.84005 -1.36049 -0.999024)
(-0.00657515 0.0182893 0.0100674)
(0.418482 0.518515 -0.484828)
(1.20248 0.678254 2.46374)
(-0.535474 0.763756 -0.134494)
(-0.120594 -0.189421 0.159994)
(0.230297 0.433153 0.557411)
(-0.892739 0.736306 0.731398)
(0.0702476 0.0333609 -0.113307)
(-0.0454018 -0.0736708 0.20246)
(-0.602324 -1.42707 -0.770721)
(-0.00298624 -0.00112438 -0.00167429)
(-0.520877 -0.297927 0.224554)
(0.0975715 -0.447306 -0.205863)
(0.0788113 -0.304519 -0.17378)
(-0.461523 -0.645268 0.0478501)
(0.0178861 -0.119793 -0.487012)
(0.0999925 -0.388021 -0.413537)
(-0.0947269 0.405349 -0.147257)
(-1.29542 -0.532187 0.789334)
(0.237818 0.341932 -0.0662706)
(0.0257823 0.0145451 0.0562119)
(-0.139464 -0.15846 0.192224)
(0.0795063 -0.0728544 0.067078)
(-0.25047 -2.09236 -0.871941)
(0.00136121 -0.0127624 -0.00823809)
(-0.547411 0.326076 -0.114651)
(0.764883 -0.29043 -1.74063)
(0.32908 0.0620564 0.325888)
(-1.03495 -2.11018 -0.990472)
(0.943433 0.191482 -0.0290331)
(0.687633 -0.387672 0.152437)
(2.94983 1.12431 -1.09588)
(-0.744101 0.409323 3.02228)
(0.827349 -1.2468 0.803338)
(0.180746 -0.555305 -0.543487)
(1.25298 -1.35296 -0.132978)
(0.0173756 -0.0139584 -0.00124058)
(-1.02917 0.428631 0.337082)
(0.623703 0.342692 0.353528)
(0.0841666 -0.0476484 0.0052176)
(-0.520095 -0.680513 1.06388)
(-2.91674 1.22115 -4.698)
(-0.330557 -0.059034 0.32943)
(-0.0517224 0.1207 0.128739)
(0.16715 0.206424 -0.266816)
(-0.277893 -0.431937 0.0494949)
(0.343489 0.445862 0.482939)
(0.410208 1.81081 1.93451)
(0.429138 -0.149069 0.542465)
(0.0242313 -0.0710563 -0.0559279)
(1.50208 3.47886 0.202061)
(-0.229056 -0.103494 -0.0896032)
(-0.380455 0.308199 -0.14876)
(-0.764267 -1.00574 0.607134)
(-0.231348 0.127765 -0.0891433)
(0.218603 7.74683 -2.22789)
(-0.177844 0.0562006 -0.0624489)
(-0.321788 0.288039 -0.13857)
(-0.589841 0.103369 0.587008)
(0.0657828 -0.00792736 -0.133557)
(-0.0212613 -0.417047 -0.159897)
(0.109726 0.501676 0.182936)
(0.0173188 -0.334666 0.125001)
(-0.392472 0.381065 0.351161)
(-0.749639 0.180474 0.152116)
(-0.105776 -0.287872 0.364932)
(0.167516 -0.00208331 -0.161779)
(-0.250698 -0.264268 0.26272)
(-0.136948 -0.424107 0.364962)
(-0.241043 0.139145 0.247204)
(0.507009 0.190746 0.662577)
(-0.157314 0.0579111 0.315755)
(-0.155669 -0.136896 -0.831073)
(-0.166688 -0.26918 -2.78132)
(-0.370097 0.103425 -0.102689)
(-0.104276 -0.577103 -0.148219)
(1.22707 0.24198 -0.29926)
(-0.676851 0.218102 0.571908)
(-0.0992895 -0.109621 -0.19956)
(-0.0304965 0.0297665 -0.0184378)
(-0.289689 0.0164073 0.107731)
(-0.0801998 -0.0698371 -0.0232513)
(0.415748 1.2252 -1.17751)
(-0.993064 -1.14733 0.619636)
(0.250517 0.094922 -0.0852822)
(2.12228 -3.11101 5.56495)
(-1.17712 -1.16023 0.674562)
(0.440092 -0.360928 0.669626)
(-0.0685225 0.158146 0.187022)
(0.156516 -1.74069 2.00698)
(-0.198061 -0.32669 0.0524853)
(0.00210742 0.064252 0.0155578)
(0.0162516 -0.0341906 -0.014227)
(-0.406544 0.484545 1.03158)
(-0.00221185 -0.00380856 0.00152358)
(-0.164295 -0.134923 -0.203021)
(0.319858 0.19955 -0.205373)
(0.0590483 -0.0378788 0.251513)
(-0.154109 0.138287 -0.034336)
(0.634861 -0.21371 0.5178)
(-0.538488 0.993825 0.501647)
(0.58218 -0.485473 -1.13766)
(-1.02637 -1.12023 4.31415)
(0.493423 1.11762 -3.47736)
(0.588283 0.204144 0.226299)
(0.874926 1.80619 -4.0397)
(-1.11507 2.33924 0.747403)
(-1.1112 0.944832 -6.13107)
(-0.0812797 -0.173858 -0.000409238)
(0.41814 -0.324278 -0.408224)
(2.05456 -0.12206 -1.22446)
(-0.0133655 -0.0462536 -0.138449)
(-0.129709 0.143202 -0.188918)
(0.204855 -0.141944 0.135194)
(0.00831829 -0.0356365 -0.00689843)
(-0.0225219 -0.0895914 0.0555663)
(0.391808 0.0696878 0.187754)
(1.37939 -0.215235 -1.02171)
(0.00158427 -0.0796313 -0.146797)
(0.179309 0.105332 0.450644)
(0.0108462 0.0883508 -0.0028758)
(0.564088 1.01252 -0.891599)
(-0.993679 -0.792467 0.238527)
(-0.00113153 0.0190371 -0.000872442)
(-0.0220744 -0.0521003 -0.0470332)
(-0.781334 -1.19728 -2.83363)
(0.5498 -0.719606 -0.0590466)
(-0.413978 -0.0857954 0.178488)
(-2.58245 0.555774 4.23378)
(-0.717556 -0.482137 -0.278093)
(0.0433378 -0.0204188 0.0101548)
(1.00478 0.159917 1.44458)
(-0.649903 1.94025 -0.377087)
(-0.633195 2.65634 -2.48148)
(0.247758 -0.432859 -0.032983)
(-0.00978517 -0.0146821 -0.0313692)
(-0.215208 0.0491763 0.0527416)
(1.36959 -0.653284 0.591322)
(-5.3894 -1.96676 -2.13433)
(-0.02178 -0.0272679 0.0192185)
(-0.0389352 0.0687376 0.0423175)
(-3.25854 6.02596 2.56525)
(-0.00395287 -0.00424657 -0.0041423)
(0.336806 0.098914 0.315311)
(0.515764 -2.71973 -8.23186)
(0.465397 -0.741994 1.3946)
(-0.46167 0.223025 -0.296536)
(1.25958 0.3052 -0.684397)
(-0.0516378 -0.0744351 -0.000696518)
(-0.793841 -2.27827 -4.28775)
(-2.1858 -5.04874 2.38724)
(-2.27066 -0.479478 1.86835)
(0.150846 -0.294345 -0.0143315)
(-0.8052 -5.20044 -4.28125)
(-0.103756 0.800935 -0.699695)
(-4.30419 5.43336 4.72427)
(-2.3574 -2.80604 0.87636)
(-0.638002 -4.26793 -5.59739)
(0.0169665 0.000672714 0.000430084)
(-6.49453 0.000410575 -0.256902)
(6.52645 0.30389 2.16672)
(0.371169 -6.04151 -0.421759)
(-1.24112 0.718857 -0.964959)
(-0.797551 1.51688 2.19266)
(-10.3965 2.5029 2.53081)
(1.44351 1.59919 -3.13051)
(5.64542 4.05515 -0.487995)
(6.78892 -1.82922 -4.79656)
(0.49014 0.310385 -0.468632)
(1.88762 -2.92334 2.47609)
(-6.15004 1.43085 -8.30645)
(2.20883 1.93851 3.82287)
(-0.00755969 0.0130705 0.00191839)
(1.50904 1.57489 0.909009)
(1.57457 1.13893 3.8303)
(1.12958 4.17822 2.47434)
(0.753126 0.324263 2.0383)
(0.203007 0.781573 1.3667)
(1.25295 -0.563993 -6.87371)
(-2.16361 -2.08363 1.6651)
(1.06384 3.70947 -2.58146)
(0.689771 -1.85637 -1.43192)
(-0.0986977 -0.0328341 1.15931)
(4.17035 6.40271 3.92362)
(5.29716 2.52676 14.6975)
(-1.38877 0.95774 -0.848445)
(-2.13864 4.94168 -0.828464)
(-1.6356 -3.91241 -2.54393)
(4.02328 1.49811 -2.98551)
(1.05784 -0.544957 0.201772)
(-2.63772 3.92646 4.50931)
(0.707166 -0.19034 0.876643)
(-0.389952 -0.0898673 0.107065)
(8.13726 0.856993 -11.1153)
(-8.86452 -4.23014 3.36735)
(0.65514 -3.66503 4.14168)
(0.436696 -2.14411 -0.932135)
(2.11118 1.94681 7.3742)
(1.54811 0.123306 -0.955657)
(-2.56485 8.40573 6.22733)
(-8.31713 4.5826 -7.03192)
(1.78526 -0.107282 7.52395)
(-0.377125 -1.11236 -0.387553)
(-0.326216 0.431867 -0.701903)
(-0.902979 -3.17534 -3.56752)
(1.74446 11.8162 0.996394)
(0.229473 3.6602 -3.95719)
(0.1965 0.835672 0.370692)
(1.49353 2.72635 3.04672)
(-0.693656 -0.574739 2.48591)
(-3.68228 0.263168 -1.51885)
(9.1031 -4.08718 -10.5955)
(0.648351 6.82173 -2.56112)
(3.26757 6.73034 8.14035)
(2.98127 2.63337 4.39095)
(0.532487 1.1381 -1.39935)
(-1.30058 -2.00576 0.208771)
(-0.0287277 -0.0177949 -0.0345322)
(0.745629 1.01934 0.709935)
(-1.12803 -0.733312 -1.40495)
(-5.20469 -8.11776 -2.80948)
(0.0344544 3.56859 1.16125)
(0.765864 -6.7333 -5.44476)
(-0.195292 0.132558 0.0251742)
(-4.27698 -9.34839 -10.1197)
(2.68845 3.40372 -1.38244)
(1.11288 -3.62431 -2.19829)
(0.393495 -0.336235 -1.0417)
(-9.16977 -2.3579 -0.820165)
(-0.505528 -16.5388 2.86339)
(1.32742 -2.73957 4.63732)
(9.36297 1.33865 -0.81787)
(-0.448524 -1.06531 1.36596)
(3.69866 2.99311 3.10634)
(1.59738 -4.00307 -2.15669)
(0.166618 -0.183862 -0.566883)
(-0.0222859 0.080029 0.147682)
(-1.12362 -2.63491 1.83592)
(2.27359 7.84714 8.52426)
(-4.67279 -7.24399 -3.4155)
(6.31801 2.18866 -4.75714)
(0.0654648 -1.75625 -1.51665)
(2.21066 -3.84861 7.68093)
(0.469402 1.73268 -1.22731)
(1.35354 0.415674 -0.448673)
(3.79726 10.9142 -2.74805)
(-1.0993 0.104796 -6.77688)
(2.66076 -0.834262 -3.82494)
(-1.28428 -0.58221 0.444668)
(5.15596 1.85686 -2.31982)
(6.92956 -3.96698 6.80298)
(-0.902872 -1.03194 2.10095)
(-0.280374 -1.31528 2.97933)
(1.97637 -4.18728 3.37999)
(1.68257 -1.63267 -1.91636)
(-2.4636 2.86576 -0.809924)
(0.769525 0.376571 1.24043)
(-0.785708 2.08253 6.50388)
(0.349183 -0.477963 0.451894)
(0.113778 1.35844 1.13694)
(-3.90918 -1.28863 -1.95896)
(1.20707 0.936297 -1.72394)
(-0.0217847 -0.00940265 -0.0928089)
(4.70185 -2.34387 2.32003)
(3.9334 1.18908 8.0756)
(2.17475 3.736 -1.53156)
(1.29712 -0.626291 0.380491)
(-7.72198 4.39741 6.94385)
(1.16473 -0.885889 -1.54404)
(-1.51461 3.49037 0.757215)
(0.268735 2.57582 0.237832)
(-0.721337 3.41519 -0.364828)
(0.363208 -5.88095 4.64086)
(-0.974469 3.16534 -4.12542)
(3.95056 0.305866 1.29924)
(-2.7962 1.95594 -2.23606)
(-0.347546 0.377875 0.376292)
(3.79404 4.39169 -0.824939)
(2.65262 -0.254374 3.04914)
(0.877067 -1.37981 0.607255)
(0.186436 -0.184655 0.135111)
(0.744628 0.321248 1.125)
(-0.775844 1.85431 -0.0972588)
(-3.0192 1.00421 -2.02317)
(0.280908 -0.0607841 -0.121689)
(-1.89948 -0.7732 0.469185)
(0.543427 0.00457335 0.697757)
(-0.989287 0.467194 -2.05852)
(-5.2266 -1.93334 -4.61923)
(1.35013 -0.385542 -1.3443)
(0.0401614 0.313225 -0.365346)
(-0.851719 0.863245 -0.614229)
(0.113764 0.198726 0.0410759)
(9.97465 18.0719 -4.66858)
(1.08693 1.48651 0.173686)
(0.00496737 0.229797 0.738972)
(-0.127678 -0.257478 -0.393134)
(3.63033 1.90804 -0.24933)
(2.15026 2.83749 3.48857)
(-0.179027 1.45125 3.16935)
(1.42399 -1.28362 3.01152)
(3.1598 0.428354 -0.740387)
(-0.060827 -0.0978428 0.508409)
(-0.473646 -0.193063 1.01705)
(0.261921 0.911654 0.682505)
(0.93086 2.96664 0.189569)
(-5.39831 1.27312 2.49465)
(1.54697 1.9212 -0.656206)
(-0.919469 0.104035 0.281661)
(0.237298 -0.445198 -0.35411)
(2.21889 1.87484 -0.0669006)
(0.399097 1.18599 1.22007)
(-2.52498 -2.50114 -1.93341)
(-0.0206958 0.0180988 -0.0284224)
(0.366971 -0.898289 -0.779705)
(0.467008 -0.884136 -0.238297)
(-1.78645 0.833033 0.447462)
(-0.773359 0.0935737 1.43462)
(0.475732 0.376819 -0.7685)
(0.0939245 0.41282 -0.0842411)
(-0.0257203 0.1865 0.225269)
(1.85122 -0.592719 2.35565)
(3.29287 -0.0208981 -0.980996)
(1.21711 -1.32213 1.23985)
(-1.6071 -0.422381 -0.634139)
(-0.686448 0.145838 0.752238)
(0.884733 -1.76128 1.07564)
(-0.160214 1.58166 -0.908189)
(1.17341 1.58397 0.166738)
(2.95927 0.0249321 0.24078)
(-0.293027 0.681775 -0.67222)
(-0.0193047 -0.0253073 -0.0335692)
(-0.285318 -0.383904 -0.0550195)
(-0.047012 0.0946421 -0.194313)
(-2.21169 1.86449 1.08405)
(0.901874 -0.0886168 0.867104)
(0.257633 0.447681 -0.0849248)
(0.037993 1.15033 -0.0618725)
(-1.29762 -0.0600662 -0.156473)
(0.112018 0.743939 -1.74668)
(0.510523 0.306296 -0.0943006)
(0.00165256 -0.000332067 -0.00431942)
(-0.298027 0.0118103 -0.922548)
(-0.370509 0.359988 -0.153671)
(0.946882 0.133744 0.404697)
(-1.15024 -0.709461 0.0871578)
(-1.07212 -0.479846 -0.688605)
(1.34364 -0.800144 -0.126824)
(-0.850354 -2.66502 0.58569)
(-0.174233 -0.103895 0.0505574)
(-0.110628 0.683514 0.61416)
(-0.472232 1.06277 0.386884)
(0.643495 0.623372 2.79752)
(0.384047 0.715319 0.217826)
(0.0813694 3.03002 -2.07489)
(-1.72181 0.134251 0.171279)
(-1.5734 -0.207016 -1.93074)
(0.657136 -1.70658 -1.1027)
(-2.25871 -1.63856 -0.18673)
(-1.82507 1.83221 0.846144)
(0.632036 -0.273219 -0.171859)
(0.417859 0.101456 -0.166058)
(-0.668039 0.294834 -1.3214)
(-1.77254 0.599873 1.51096)
(-0.719959 -2.83974 -0.173773)
(1.75924 -1.00573 0.641893)
(-0.344483 0.391801 0.348885)
(0.201623 -0.00884518 -0.0269855)
(-1.31278 0.784237 2.17044)
(0.235276 -0.733407 0.279377)
(-0.89547 0.0697263 1.23609)
(0.686836 0.907662 -0.0160219)
(0.258294 0.0725299 0.0243779)
(-0.0234372 -0.0121573 0.00436066)
(0.0227146 -0.726676 -1.38796)
(-0.872363 -0.405853 -0.227771)
(0.146963 -1.20999 -2.07746)
(6.16939 -2.35126 -1.41203)
(0.0210162 1.39577 -1.51285)
(-0.531296 1.3012 0.378278)
(-1.04255 1.08166 -0.557101)
(-0.673802 -1.73157 -0.104695)
(0.25726 0.498513 -0.188788)
(-0.338696 0.297216 0.516518)
(-0.505011 0.25173 -0.377525)
(-0.162428 -0.00628823 0.0943031)
(-1.21338 -0.865049 1.96828)
(1.37112 -0.283433 0.257533)
(-1.35097 0.414938 -0.829428)
(-0.139659 0.321332 -0.201556)
(-1.71097 -1.08191 0.465657)
(-0.0280751 -0.186234 -0.343716)
(0.4059 0.262938 0.655595)
(1.98095 -0.990242 2.39626)
(-0.0785045 0.0598415 0.0780636)
(0.210893 0.165429 0.278959)
(0.134585 -0.510545 -0.14042)
(0.156839 2.30563 0.922869)
(0.666888 0.855342 -0.96885)
(-1.49939 -0.215594 2.29758)
(-0.101436 -0.0979318 -0.146108)
(-0.134468 -0.00525487 0.0975272)
(-0.201607 0.578974 -1.77083)
(-0.01633 -0.20841 0.0273825)
(-0.020975 0.00780616 -0.0235519)
(2.66149 -1.38985 1.24943)
(2.60285 0.316358 0.298337)
(1.16098 0.0975635 -1.33371)
(1.23086 1.67405 0.973752)
(0.704366 0.172992 -0.0159226)
(0.0237266 0.0313821 0.0468245)
(-0.253859 -0.615132 0.516898)
(1.84489 -0.797418 0.11523)
(0.132945 -1.12542 0.415178)
(0.343846 3.88893 4.95168)
(0.304752 0.739665 -0.795692)
(-0.0389578 0.418646 0.154453)
(1.32008 0.547912 -0.0118064)
(0.027228 0.0140806 0.0404386)
(-0.105059 -0.134282 -0.146079)
(0.0650811 0.577947 -0.233054)
(-1.9698 -0.428413 2.86664)
(-0.148497 -3.11709 2.04203)
(0.440869 0.13364 -0.746698)
(1.32932 -1.07594 -0.801119)
(0 0 0)
(2.17164 1.7245 -0.510982)
(0.974774 -1.55903 0.703392)
(0 0 0)
(-0.624534 0.140554 0.676107)
(0.443997 0.248551 -0.531525)
(0 0 0)
(-1.66009 -0.55984 -0.614288)
(-0.202694 0.091126 0.110349)
(0.186878 0.348438 0.484733)
(-0.0113473 0.017032 -0.0158742)
(-1.23015 1.23154 -2.82275)
(2.48629 -1.2016 -1.87757)
(1.50793 -0.491155 -0.865503)
(0 0 0)
(5.80952 0.507227 1.11275)
(-0.0337311 -0.227309 0.621678)
(-0.164542 -0.0500793 -0.226226)
(0.242771 0.450992 0.741444)
(0.0712899 0.399713 -0.945902)
(0.279761 -0.256675 -0.367715)
(1.39129 0.00858901 -0.575235)
(0 0 0)
(1.97142 -0.0943044 -0.203066)
(0.00653265 0.056056 0.108724)
(0.739127 -0.186428 -0.267533)
(0 0 0)
(0.0956767 -1.65024 -0.343779)
(-1.42176 0.149614 -1.59252)
(1.67193 -1.28946 -0.289069)
(2.2783 2.54069 0.78779)
(0.284908 1.70858 -0.204467)
(0 0 0)
(0.354521 -0.469747 0.0255617)
(0.225563 0.969692 0.149972)
(-2.19022 -0.0360543 0.641858)
(0 0 0)
(3.04692 0.98673 -0.102461)
(0 0 0)
(-0.0655373 -1.55687 0.35847)
(0.0187004 -0.10033 -0.0275088)
(-0.274449 -0.395234 -0.340909)
(0 0 0)
(0.693559 -0.40201 0.483804)
(0 0 0)
(-1.06351 0.58963 -1.42396)
(0.588019 -0.223284 0.688292)
(0.0690292 -0.04884 0.0445294)
(0 0 0)
(0 0 0)
(-0.354109 0.0939997 -0.0107111)
(0.644056 -1.7535 -0.619082)
(0.659328 -1.38917 -0.879538)
(-2.68602 1.72985 -2.70457)
(0 0 0)
(0 0 0)
(-0.639997 1.40099 0.0152006)
(0 0 0)
(0 0 0)
(-0.0741001 0.135482 0.00345965)
(1.20089 5.14299 3.53259)
(-0.00813633 -0.0822815 0.00215507)
(0 0 0)
(0 0 0)
(0 0 0)
(-0.0242141 -0.192226 -0.128869)
(0 0 0)
(0 0 0)
(0 0 0)
(0 0 0)
)


// ************************************************************************* //
