/*--------------------------------*- C++ -*----------------------------------*\
  =========                 |
  \\      /  F ield         | OpenFOAM: The Open Source CFD Toolbox
   \\    /   O peration     | Website:  https://openfoam.org
    \\  /    A nd           | Version:  6
     \\/     M anipulation  |
\*---------------------------------------------------------------------------*/
FoamFile
{
    version     2.0;
    format      ascii;
    class       scalarField;
    location    "0.005/lagrangian/sprayCloud";
    object      y;
}
// * * * * * * * * * * * * * * * * * * * * * * * * * * * * * * * * * * * * * //


531
(
0.0193987
0.0144293
0.0353595
0.00818215
0.0238937
0.00363601
0.0194908
0.0114311
0.00813914
0.00326276
0.0194317
0.00390659
0.00423057
0.0115004
0.0196189
0.0061385
3.31434e-05
6.96557e-06
3.60615e-08
7.89178e-05
1.73229e-05
2.63167e-05
3.6759e-05
1.62254e-08
1.55371e-05
9.9163e-06
9.48301e-05
4.5477e-05
4.23101e-05
6.27258e-05
7.4733e-05
3.02889e-05
7.49945e-05
5.04593e-05
2.44074e-05
0.000207221
8.46776e-05
0.000126413
0.000148472
2.26347e-05
6.88224e-05
4.96553e-05
1.44192e-06
8.43466e-05
8.73023e-05
0.000310318
1.43064e-05
1.94192e-05
9.84077e-05
0.000153203
1.04913e-05
0.000270819
0.000524746
0.000148629
2.60084e-06
-8.90637e-06
7.83822e-05
0.000147621
1.97954e-05
7.15695e-06
5.02685e-05
1.90556e-05
5.77985e-05
0.000847516
0.000128539
1.11413e-07
0.000181652
0.000200363
3.97477e-07
1.38875e-07
1.80772e-06
6.45874e-08
0.00296349
0.000226997
0.00126949
0.000117624
0.00151344
0.00181744
0.00251484
0.00229065
0.0014178
0.00209826
0.00186909
0.00455356
0.00208114
0.00254656
-0.00486019
0.000797476
0.000357998
1.40126e-05
0.00096576
9.04847e-05
0.00175963
0.000899235
0.000493958
0.000711801
0.000740083
0.000272661
0.000760316
0.000769567
0.000667471
0.000552053
0.000705011
0.000991315
0.000396719
0.000152278
6.0645e-05
0.000609946
0.00166309
0.00133001
0.00183438
0.000278453
2.74051e-06
8.37089e-06
0.00142321
0.00323759
0.000818775
0.00370167
0.00156013
0.000275778
0.000797836
2.31126e-05
0.000600216
0.000138143
0.000585407
7.38881e-05
0.00035366
0.000505836
0.000788933
0.00138491
0.000419218
-0.000107592
0.00100434
2.14572e-08
0.000501877
-2.34811e-05
0.000788871
2.23208e-05
0.000719002
0.000545766
0.000485835
9.44215e-05
0.000896526
-0.000254303
0.00193112
0.000262219
9.65436e-08
0.00113184
0.000610807
-0.000899534
0.0108252
0.000832516
-0.000324594
0.00131896
0.00128658
0.000322282
0.000282509
0.00324227
-0.000552155
0.0017045
0.0219003
5.79314e-05
0.000486684
7.29587e-06
-0.0048121
0.0147491
0.00118904
4.17813e-05
0.000799701
0.00274219
0.00373299
0.0316539
0.00031595
0.00305658
0.000233068
0.00982218
0.0338466
0.000122914
0.00742051
0.00129633
0.000239257
0.000131976
0.00298384
0.0135401
0.00769454
-0.001398
8.29905e-05
-0.00261627
0.132751
0.00150297
1.64289e-08
4.9359e-06
6.2582e-05
0.000290071
0.0178056
1.06045e-07
0.0118003
0.0152763
3.35717e-05
0.00570598
1.75082e-05
0.00200047
0.00119324
1.78526e-06
0.0665312
0.00276486
0.000388232
0.0181853
2.14235e-05
0.00188589
0.0151303
-0.00464192
0.0575257
0.000437778
0.00013022
3.6396e-05
-0.000725422
0.000125461
-3.0345e-05
-8.50554e-05
0.00251562
0.000119924
0.00360492
0.000531199
-0.000458524
0.00408809
0.00791295
0.00120965
0.000200443
4.43655e-05
1.66152e-05
2.65337e-05
2.51438e-05
0.00167704
4.89881e-05
0.000260183
0.0346512
7.82781e-05
-3.20353e-07
0.000203758
0.000532778
0.000890796
0.000319156
3.5185e-06
8.79417e-05
-1.39719e-05
0.000368206
0.00257851
2.24506e-06
1.61602e-06
-0.00410031
0.000242928
3.64737e-05
0.000222332
-4.15846e-05
0.000105215
0.000371022
0.000106999
0.000218843
4.03039e-06
0.00154172
0.000130858
0.000109577
6.58248e-06
0.000581175
0.00177513
0.000328833
0.000423427
0.000157951
0.000136675
0.00120383
0.000130998
0.000255165
2.33218e-05
0.000103317
0.000512601
0.000250642
0.000155115
3.87468e-05
3.58443e-07
0.000474859
-8.25933e-05
0.000161269
7.34565e-05
0.000196674
1.19159e-05
3.23595e-06
0.000281511
0.000129204
0.000384771
0.000114837
0.000135895
0.000199294
-0.000154443
9.05695e-05
3.7459e-05
-0.000192389
0.00121498
-1.95987e-05
0.000284605
-0.000123913
9.33565e-06
6.19179e-05
1.48545e-08
1.18111e-05
0.000109034
0.000159417
6.42442e-05
0.0012392
0.000278042
0.0013118
0.000308216
1.94342e-05
0.00129168
0.00018986
0.000122674
6.77769e-05
0.000539772
4.23083e-05
2.74645e-06
3.88103e-06
3.27011e-05
0.000137682
0.000157911
4.68244e-05
0.0012125
1.4468e-06
0.000191585
0.000894305
2.85787e-06
0.000136886
1.71338e-05
6.58074e-05
1.30131e-06
0.00020513
-6.36927e-05
5.01079e-06
3.9239e-05
4.34734e-05
-0.000144024
1.3824e-06
-1.97324e-06
6.46847e-05
3.81751e-06
1.92386e-09
7.0623e-06
9.74324e-05
0.000215288
2.09015e-05
6.00291e-05
0.000729023
4.49888e-05
8.35341e-06
2.59409e-05
0.000418787
0.000612927
0.000113524
3.10834e-05
3.1141e-05
0.000537698
0.000127142
0.00037854
2.95946e-05
0.00194183
-0.000124338
0.000567905
-9.28272e-05
-2.5166e-05
0.00013989
0.00093943
0.000189939
2.38749e-05
2.63632e-05
-0.000241062
0.000628085
0.000191689
0.000934049
-0.000211285
6.50616e-06
0.000662136
0.000483806
-5.29949e-06
-0.000727607
0.001462
-0.00019683
0.00019335
0.000187326
4.20331e-05
-0.00224952
0.00272852
-0.00303864
0.000278035
-0.00120071
1.93933e-05
-0.00275424
-4.81348e-05
0.000351003
-0.000142402
0.000332605
0.00454188
-0.00188119
-4.09518e-05
1.83964e-05
0.0015428
0.000942391
0.000116647
0.000619124
0.000379213
9.74466e-05
0.000137725
0.00038536
2.6738e-05
3.82019e-05
0.000182002
-5.51519e-05
0.00016293
9.42186e-05
-0.000149308
0.000246218
0.000504903
4.9409e-05
9.37398e-05
0.000538709
0.000142516
6.66511e-06
1.41264e-05
-2.08892e-06
7.06254e-05
1.24219e-05
8.37202e-05
3.96346e-06
3.58226e-05
2.78257e-05
-5.41828e-05
-6.69015e-05
0.000181027
2.07699e-05
3.18825e-06
-5.9015e-05
4.78453e-06
0.000278751
-0.00169058
-7.98918e-05
-3.83613e-07
0.000288719
3.97071e-05
1.2299e-05
0.000154116
2.67089e-05
0.000113536
0.00217241
0.000121993
0.000248855
1.55581e-05
2.6658e-05
0.000920489
0.000763219
0.00011772
6.27963e-05
-9.51782e-06
4.46578e-07
4.88591e-05
0.000130949
2.38833e-05
2.61114e-06
2.43433e-05
0.000252747
-5.56368e-05
0.000291238
0.00109797
0.000258124
2.67279e-05
0.00198173
3.55828e-06
3.37821e-06
0.000121066
0.0017101
0.00300367
0.000195682
4.16178e-05
-0.000180251
0.00020674
-0.0150149
0.000341349
-0.000555727
0.000358534
0.00250555
0.000127624
0.000355648
0.000112706
0.0359699
0.000320649
0.000716162
5.34137e-06
0.000402823
0.00231458
4.11352e-06
2.94217e-05
0.000221503
1.60495e-05
0.00671073
0.000981813
0.000644419
6.86726e-05
0.000506003
5.20691e-06
0.00152158
0.000171469
0.000652876
0.000337151
2.65356e-05
0.00237998
0.00174034
0.0020693
3.06965e-05
0.00168483
0.000522613
0.00130612
1.85634e-05
0.00116995
0.0139884
0.00314278
-0.00789214
0.000467601
0.000175902
0.000392342
0.0540223
0.000559977
0.00103814
0.000714777
4.60363e-05
)


// ************************************************************************* //
