/*--------------------------------*- C++ -*----------------------------------*\
  =========                 |
  \\      /  F ield         | OpenFOAM: The Open Source CFD Toolbox
   \\    /   O peration     | Website:  https://openfoam.org
    \\  /    A nd           | Version:  6
     \\/     M anipulation  |
\*---------------------------------------------------------------------------*/
FoamFile
{
    version     2.0;
    format      ascii;
    class       scalarField;
    location    "0.005/lagrangian/sprayCloud";
    object      yDot;
}
// * * * * * * * * * * * * * * * * * * * * * * * * * * * * * * * * * * * * * //


531
(
-48.3346
-49.7248
-65.6285
57.9743
69.2521
74.7706
-109.228
41.4553
80.084
37.4535
171.892
56.2874
66.7472
-78.4984
-215.938
-36.9638
0.130569
0.305503
-0.0006038
-0.201637
-0.0667009
0.196182
0.902093
0.00136292
0.79179
0.175109
1.0408
0.986141
-0.488646
1.6363
-0.335222
0.473086
2.62871
-1.27249
-0.0190876
-4.0768
0.944097
-30.5521
-1.33187
-1.89816
-2.6617
-1.16943
-0.254264
7.54393
-0.507087
-1.36868
-0.79565
-1.16645
2.96135
13.1454
-0.518662
6.69391
28.6533
-11.6556
0.305028
-2.46297
-7.59977
-10.2439
0.445537
-0.121166
6.58691
3.49932
-1.43061
27.814
0.408263
-0.0143576
-12.6868
-4.3367
-0.0374318
0.00633197
-0.00841772
-0.00175673
61.7426
224.436
100.161
57.5721
135.255
-116.244
228.743
-12.2771
69.43
119.745
34.0356
-806.953
403.309
-12.6891
-143.476
41.3973
45.5637
-0.163003
149.741
-3.58678
2.40647
42.8134
45.6857
-44.9333
36.0872
70.4511
-1.86783
28.4873
-31.4594
26.7709
55.5762
7.28043
-28.4594
11.1505
-5.53557
11.4895
-33.8137
225.596
-32.6871
-13.6629
1.75103
2.42105
-34.1595
12.6272
397.588
60.9602
996.107
306.223
-30.9489
-10.5011
-1349.95
73.6521
-32.3083
11.4913
61.4634
-24.7799
60.5256
-40.7428
-4.28521
-16.7391
2.87632
0.0341511
-54.576
26.7244
-21.0031
32.7341
449.403
160.174
-8.88427
-1235.96
275.058
12.466
-68.5579
-33.2167
0.011971
117.97
148.958
-1154.73
-67.5493
64.4179
612.767
698.608
219.191
-281.624
296.587
117.702
594.663
384.715
-152.256
-5.42649
42.5313
-67.6147
-994.249
-695.716
1612.34
2.37603
643.174
-3275.68
51.0348
-472.402
-4.28044
868.836
329.193
260.744
-255.235
-3.35021
-113.16
379.655
37.9137
206.267
-194.316
-192.856
79.46
-223.844
-1.79824
-288.469
107.714
252.631
0.00642202
-6.20963
-1.51386
167.019
1471.97
0.0129475
-1400.26
610.569
-30.9113
899.214
-13.756
70.0647
326.278
-0.379971
3367.17
1736.16
40.7502
219.969
21.5433
194.754
-503.745
-1276.47
-760.626
-95.0307
-13.129
10.5675
17.9025
-7.7439
75.1583
-8.24871
163.047
-51.4128
119.245
46.8304
-200.052
-76.8877
-144.712
-66.7237
92.9802
2.21826
5.59038
-24.8127
-22.8742
190.648
54.7659
146.407
-57.6682
-3.93483
10.6721
66.4861
22.1063
6.60189
-58.6827
7.07664
-246.598
-14.7912
-14.6311
-124.242
-0.623596
-0.0486985
-51.7882
8.53858
-68.4227
-137.199
-31.3961
-58.2297
-88.7358
45.3084
-9.14393
1.50874
180.821
28.2448
13.4833
-2.92607
46.6071
109.221
98.5867
-21.4581
20.5425
72.1602
81.3777
139.396
35.5399
-13.5812
172.873
-88.4481
15.3209
-62.5869
57.2622
-0.162351
-99.483
115.133
7.87456
6.16709
79.8426
-12.1794
-59.9146
9.63651
49.8506
22.1272
21.6312
32.7411
20.6555
98.7174
-9.51406
-13.933
12.447
-52.2451
9.62846
57.0709
-20.7037
17.4594
32.7703
0.00128614
61.3605
-93.9886
7.30129
16.9291
-151.528
75.4473
2.65605
-22.0401
10.9856
34.028
-31.236
-75.1562
-104.225
-5.17206
15.137
-3.22591
1.82037
-4.85088
44.2626
13.9596
-26.8489
12.6491
-0.842745
40.1377
-11.6298
-0.186841
0.94761
6.77788
12.0109
1.18178
54.0176
-71.5696
3.96129
26.8864
-1.59798
58.0787
-11.241
24.3729
32.3727
1.47889
0.0022831
-2.65708
52.3122
54.7574
-13.4511
-2.85512
66.943
76.9611
-8.49188
74.3044
197.111
101.314
25.7116
-3.89708
70.1898
-23.5325
72.3209
1.84418
14.0434
-165.645
35.3335
115.663
32.7867
13.1702
26.3928
180.317
193.421
-162.145
24.7298
83.0809
139.83
123.365
-105.587
40.238
12.2544
222.44
92.9643
-5.54085
-441.232
17.4377
-50.1639
-250.678
-115.389
-33.8724
1082.55
233.476
-206.288
248.132
883.12
-43.6403
151.841
-173.812
44.5062
-14.9631
103.929
-310.419
475.316
32.8065
-31.0583
300.06
-338.616
-325.294
82.1502
-26.37
107.881
8.36954
-210.882
48.6992
-34.7269
99.0823
-139.927
13.0452
43.9191
25.7341
5.20515
-29.4622
25.9103
-32.3821
-29.4186
50.7642
5.34737
1.95898
-0.300301
-21.1915
7.71931
-11.3907
-4.06136
-5.335
-32.658
74.5091
-37.1316
126.011
-4.86326
19.3686
69.5933
-2.5311
198.984
-432.307
-53.6947
-3.1883
-39.9958
18.9515
-7.7559
-18.96
-41.74
34.0951
-150.743
58.3665
-37.7281
-0.0519361
26.1335
-35.6775
26.7398
12.7231
14.4106
-55.4848
1.78501
16.8915
-163.512
-2.22675
-0.373537
36.4601
7.15447
-6.61548
-25.3532
-66.6507
-14.2526
-1.30203
95.1472
0.611013
0.0758854
3.68718
-226.419
349.532
-36.1401
-106.212
205.025
-77.6579
-87.6228
45.8535
-37.4221
45.2594
-288.032
5.72602
42.4549
-8.81497
-219.517
-56.2414
30.8259
0.429259
-6.73216
-59.7501
3.43711
-1.03078
34.327
0.577016
-156.244
55.2472
-48.8989
1.11763
-124.769
-1.38508
-171.81
28.5536
-7.84241
-3.34742
7.51775
-73.8421
57.4353
-303.721
2.52811
17.6681
0.787183
-365.732
-0.986016
221.38
-1719.85
-1027.13
263.108
-29.6902
-12.4386
-1.71982
-6686.25
-55.117
-14.4075
-2.91166
32.1632
)


// ************************************************************************* //
